;;
;; Generated by CHARMM-GUI FF-Converter
;;
;; Correspondance:
;; jul316@lehigh.edu or wonpil@lehigh.edu
;;
;; The main GROMACS topology file
;;

; Include forcefield parameters
#include "toppar/forcefield.itp"
#include "toppar/PROA.itp"
#include "toppar/PROC.itp"
#include "toppar/RNAA.itp"
#include "toppar/TPP.itp"
#include "toppar/MG.itp"
#include "toppar/SOD.itp"
#include "toppar/CLA.itp"
#include "toppar/TIP3.itp"

[ system ]
; Name
Title

[ molecules ]
; Compound	#mols
PROA  	           1
PROC  	           1
RNAA  	           1
TPP   	           1
MG    	           4
SOD   	         170
CLA   	         106
TIP3  	       37153
