;;
;; Generated by CHARMM-GUI FF-Converter
;;
;; Correspondance:
;; jul316@lehigh.edu or wonpil@lehigh.edu
;;
;; The main GROMACS topology file
;;

; Include forcefield parameters
#include "toppar/forcefield.itp"
#include "toppar/PROA.itp"
#include "toppar/UQ2.itp"
#include "toppar/DOPC.itp"
#include "toppar/POPC.itp"
#include "toppar/SOD.itp"
#include "toppar/CLA.itp"
#include "toppar/TIP3.itp"

[ system ]
; Name
Title

[ molecules ]
; Compound	#mols
PROA  	           1
UQ2   	           1
DOPC  	         100
POPC  	         100
SOD   	          58
CLA   	          62
TIP3  	       21706
