;;
;; Generated by CHARMM-GUI FF-Converter
;;
;; Correspondance:
;; jul316@lehigh.edu or wonpil@lehigh.edu
;;
;; GROMACS topology file for UQ2
;;


[ moleculetype ]
; name	nrexcl
UQ2	     3

[ atoms ]
; nr	type	resnr	residu	atom	cgnr	charge	mass
     1      CG2O5    201      UQ2     C1      1     0.242000    12.0110   ; qtot  0.242
     2     CG2D1O    201      UQ2     C2      2     0.195000    12.0110   ; qtot  0.437
     3     CG2D1O    201      UQ2     C3      3     0.195000    12.0110   ; qtot  0.632
     4      CG2O5    201      UQ2     C4      4     0.228000    12.0110   ; qtot  0.860
     5     CG2DC1    201      UQ2     C5      5     0.112000    12.0110   ; qtot  0.972
     6     CG2DC1    201      UQ2     C6      6     0.173000    12.0110   ; qtot  1.145
     7      CG331    201      UQ2     C7      7    -0.061000    12.0110   ; qtot  1.084
     8      CG331    201      UQ2     C8      8    -0.061000    12.0110   ; qtot  1.023
     9      CG331    201      UQ2     C9      9    -0.396000    12.0110   ; qtot  0.627
    10      CG321    201      UQ2    C10     10    -0.228000    12.0110   ; qtot  0.399
    11      CG2D1    201      UQ2    C11     11    -0.221000    12.0110   ; qtot  0.178
    12      CG2D1    201      UQ2    C12     12     0.013000    12.0110   ; qtot  0.191
    13      CG331    201      UQ2    C13     13    -0.269000    12.0110   ; qtot -0.078
    14      CG321    201      UQ2    C14     14    -0.182000    12.0110   ; qtot -0.260
    15      CG321    201      UQ2    C15     15    -0.181000    12.0110   ; qtot -0.441
    16      CG2D1    201      UQ2    C16     16    -0.159000    12.0110   ; qtot -0.600
    17      CG2D1    201      UQ2    C17     17     0.004000    12.0110   ; qtot -0.596
    18      CG331    201      UQ2    C18     18    -0.267000    12.0110   ; qtot -0.863
    19      CG331    201      UQ2    C19     19    -0.267000    12.0110   ; qtot -1.130
    20      OG2D3    201      UQ2     O1     20    -0.289000    15.9994   ; qtot -1.419
    21      OG301    201      UQ2     O2     21    -0.376000    15.9994   ; qtot -1.795
    22      OG301    201      UQ2     O3     22    -0.376000    15.9994   ; qtot -2.171
    23      OG2D3    201      UQ2     O4     23    -0.289000    15.9994   ; qtot -2.460
    24       HGA3    201      UQ2     H1     24     0.090000     1.0080   ; qtot -2.370
    25       HGA3    201      UQ2     H2     25     0.090000     1.0080   ; qtot -2.280
    26       HGA3    201      UQ2     H3     26     0.090000     1.0080   ; qtot -2.190
    27       HGA3    201      UQ2     H4     27     0.090000     1.0080   ; qtot -2.100
    28       HGA3    201      UQ2     H5     28     0.090000     1.0080   ; qtot -2.010
    29       HGA3    201      UQ2     H6     29     0.090000     1.0080   ; qtot -1.920
    30       HGA3    201      UQ2     H7     30     0.090000     1.0080   ; qtot -1.830
    31       HGA3    201      UQ2     H8     31     0.090000     1.0080   ; qtot -1.740
    32       HGA3    201      UQ2     H9     32     0.090000     1.0080   ; qtot -1.650
    33       HGA2    201      UQ2    H10     33     0.090000     1.0080   ; qtot -1.560
    34       HGA2    201      UQ2    H11     34     0.090000     1.0080   ; qtot -1.470
    35       HGA4    201      UQ2    H12     35     0.150000     1.0080   ; qtot -1.320
    36       HGA3    201      UQ2    H13     36     0.090000     1.0080   ; qtot -1.230
    37       HGA3    201      UQ2    H14     37     0.090000     1.0080   ; qtot -1.140
    38       HGA3    201      UQ2    H15     38     0.090000     1.0080   ; qtot -1.050
    39       HGA2    201      UQ2    H16     39     0.090000     1.0080   ; qtot -0.960
    40       HGA2    201      UQ2    H17     40     0.090000     1.0080   ; qtot -0.870
    41       HGA2    201      UQ2    H18     41     0.090000     1.0080   ; qtot -0.780
    42       HGA2    201      UQ2    H19     42     0.090000     1.0080   ; qtot -0.690
    43       HGA4    201      UQ2    H20     43     0.150000     1.0080   ; qtot -0.540
    44       HGA3    201      UQ2    H21     44     0.090000     1.0080   ; qtot -0.450
    45       HGA3    201      UQ2    H22     45     0.090000     1.0080   ; qtot -0.360
    46       HGA3    201      UQ2    H23     46     0.090000     1.0080   ; qtot -0.270
    47       HGA3    201      UQ2    H24     47     0.090000     1.0080   ; qtot -0.180
    48       HGA3    201      UQ2    H25     48     0.090000     1.0080   ; qtot -0.090
    49       HGA3    201      UQ2    H26     49     0.090000     1.0080   ; qtot -0.000

[ bonds ]
; ai	aj	funct	b0	Kb
    1     2     1
    1     6     1
    1    20     1
    2     3     1
    2    21     1
    3     4     1
    3    22     1
    4     5     1
    4    23     1
    5     6     1
    5     9     1
    6    10     1
    7    21     1
    7    24     1
    7    25     1
    7    26     1
    8    22     1
    8    27     1
    8    28     1
    8    29     1
    9    30     1
    9    31     1
    9    32     1
   10    11     1
   10    33     1
   10    34     1
   11    12     1
   11    35     1
   12    13     1
   12    14     1
   13    36     1
   13    37     1
   13    38     1
   14    15     1
   14    39     1
   14    40     1
   15    16     1
   15    41     1
   15    42     1
   16    17     1
   16    43     1
   17    18     1
   17    19     1
   18    44     1
   18    45     1
   18    46     1
   19    47     1
   19    48     1
   19    49     1

[ pairs ]
; ai	aj	funct	c6	c12 or
; ai	aj	funct	fudgeQQ	q1	q2	c6	c12
    1     4     1
    1     7     1
    1     9     1
    1    11     1
    1    22     1
    1    33     1
    1    34     1
    2     5     1
    2     8     1
    2    10     1
    2    23     1
    2    24     1
    2    25     1
    2    26     1
    3     6     1
    3     7     1
    3     9     1
    3    20     1
    3    27     1
    3    28     1
    3    29     1
    4     8     1
    4    10     1
    4    21     1
    4    30     1
    4    31     1
    4    32     1
    5    11     1
    5    20     1
    5    22     1
    5    33     1
    5    34     1
    6    12     1
    6    21     1
    6    23     1
    6    30     1
    6    31     1
    6    32     1
    6    35     1
    9    10     1
    9    23     1
   10    13     1
   10    14     1
   10    20     1
   11    15     1
   11    36     1
   11    37     1
   11    38     1
   11    39     1
   11    40     1
   12    16     1
   12    33     1
   12    34     1
   12    41     1
   12    42     1
   13    15     1
   13    35     1
   13    39     1
   13    40     1
   14    17     1
   14    35     1
   14    36     1
   14    37     1
   14    38     1
   14    43     1
   15    18     1
   15    19     1
   16    39     1
   16    40     1
   16    44     1
   16    45     1
   16    46     1
   16    47     1
   16    48     1
   16    49     1
   17    41     1
   17    42     1
   18    43     1
   18    47     1
   18    48     1
   18    49     1
   19    43     1
   19    44     1
   19    45     1
   19    46     1
   20    21     1
   21    22     1
   22    23     1
   33    35     1
   34    35     1
   39    41     1
   39    42     1
   40    41     1
   40    42     1
   41    43     1
   42    43     1

[ angles ] 
; ai	aj	ak	funct	th0	cth	S0	Kub
    2     1     6     5
    2     1    20     5
    6     1    20     5
    1     2     3     5
    1     2    21     5
    3     2    21     5
    2     3     4     5
    2     3    22     5
    4     3    22     5
    3     4     5     5
    3     4    23     5
    5     4    23     5
    4     5     6     5
    4     5     9     5
    6     5     9     5
    1     6     5     5
    1     6    10     5
    5     6    10     5
   21     7    24     5
   21     7    25     5
   21     7    26     5
   24     7    25     5
   24     7    26     5
   25     7    26     5
   22     8    27     5
   22     8    28     5
   22     8    29     5
   27     8    28     5
   27     8    29     5
   28     8    29     5
    5     9    30     5
    5     9    31     5
    5     9    32     5
   30     9    31     5
   30     9    32     5
   31     9    32     5
    6    10    11     5
    6    10    33     5
    6    10    34     5
   11    10    33     5
   11    10    34     5
   33    10    34     5
   10    11    12     5
   10    11    35     5
   12    11    35     5
   11    12    13     5
   11    12    14     5
   13    12    14     5
   12    13    36     5
   12    13    37     5
   12    13    38     5
   36    13    37     5
   36    13    38     5
   37    13    38     5
   12    14    15     5
   12    14    39     5
   12    14    40     5
   15    14    39     5
   15    14    40     5
   39    14    40     5
   14    15    16     5
   14    15    41     5
   14    15    42     5
   16    15    41     5
   16    15    42     5
   41    15    42     5
   15    16    17     5
   15    16    43     5
   17    16    43     5
   16    17    18     5
   16    17    19     5
   18    17    19     5
   17    18    44     5
   17    18    45     5
   17    18    46     5
   44    18    45     5
   44    18    46     5
   45    18    46     5
   17    19    47     5
   17    19    48     5
   17    19    49     5
   47    19    48     5
   47    19    49     5
   48    19    49     5
    2    21     7     5
    3    22     8     5

[ dihedrals ]
; ai	aj	ak	al	funct	phi0	cp	mult
    6     1     2    21     9
   20     1     2    21     9
    2     1     6     5     9
    2     1     6    10     9
    3     2     1     6     9
    3     2     1    20     9
    1     2     3     4     9
    1     2     3    22     9
   21     2     3    22     9
    1     2    21     7     9
    3     2    21     7     9
    4     3     2    21     9
    2     3     4     5     9
    2     3     4    23     9
   22     3     4    23     9
    2     3    22     8     9
    4     3    22     8     9
    5     4     3    22     9
    3     4     5     6     9
    3     4     5     9     9
    6     5     4    23     9
    9     5     4    23     9
    4     5     6    10     9
    9     5     6    10     9
    4     5     9    30     9
    4     5     9    31     9
    4     5     9    32     9
    6     5     9    30     9
    6     5     9    31     9
    6     5     9    32     9
    5     6     1    20     9
   10     6     1    20     9
    1     6     5     4     9
    1     6     5     9     9
    1     6    10    11     9
    1     6    10    33     9
    1     6    10    34     9
    5     6    10    11     9
    5     6    10    33     9
    5     6    10    34     9
    6    10    11    12     9
    6    10    11    35     9
   33    10    11    35     9
   34    10    11    35     9
   12    11    10    33     9
   12    11    10    34     9
   10    11    12    13     9
   10    11    12    14     9
   13    12    11    35     9
   14    12    11    35     9
   11    12    13    36     9
   11    12    13    37     9
   11    12    13    38     9
   14    12    13    36     9
   14    12    13    37     9
   14    12    13    38     9
   11    12    14    15     9
   11    12    14    39     9
   11    12    14    40     9
   13    12    14    15     9
   13    12    14    39     9
   13    12    14    40     9
   12    14    15    16     9
   12    14    15    41     9
   12    14    15    42     9
   39    14    15    41     9
   39    14    15    42     9
   40    14    15    41     9
   40    14    15    42     9
   16    15    14    39     9
   16    15    14    40     9
   14    15    16    17     9
   14    15    16    43     9
   41    15    16    43     9
   42    15    16    43     9
   17    16    15    41     9
   17    16    15    42     9
   15    16    17    18     9
   15    16    17    19     9
   18    17    16    43     9
   19    17    16    43     9
   16    17    18    44     9
   16    17    18    45     9
   16    17    18    46     9
   19    17    18    44     9
   19    17    18    45     9
   19    17    18    46     9
   16    17    19    47     9
   16    17    19    48     9
   16    17    19    49     9
   18    17    19    47     9
   18    17    19    48     9
   18    17    19    49     9
    2    21     7    24     9
    2    21     7    25     9
    2    21     7    26     9
    3    22     8    27     9
    3    22     8    28     9
    3    22     8    29     9

[ dihedrals ]
; ai	aj	ak	al	funct	q0	cq
    1     2     6    20     2
    4     3     5    23     2

#ifdef POSRES
[ position_restraints ]
    1     1    POSRES_FC_BB    POSRES_FC_BB    POSRES_FC_BB   
    2     1    POSRES_FC_BB    POSRES_FC_BB    POSRES_FC_BB   
    3     1    POSRES_FC_BB    POSRES_FC_BB    POSRES_FC_BB   
    4     1    POSRES_FC_BB    POSRES_FC_BB    POSRES_FC_BB   
    5     1    POSRES_FC_BB    POSRES_FC_BB    POSRES_FC_BB   
    6     1    POSRES_FC_BB    POSRES_FC_BB    POSRES_FC_BB   
    7     1    POSRES_FC_BB    POSRES_FC_BB    POSRES_FC_BB   
    8     1    POSRES_FC_BB    POSRES_FC_BB    POSRES_FC_BB   
    9     1    POSRES_FC_BB    POSRES_FC_BB    POSRES_FC_BB   
   10     1    POSRES_FC_BB    POSRES_FC_BB    POSRES_FC_BB   
   11     1    POSRES_FC_BB    POSRES_FC_BB    POSRES_FC_BB   
   12     1    POSRES_FC_BB    POSRES_FC_BB    POSRES_FC_BB   
   13     1    POSRES_FC_BB    POSRES_FC_BB    POSRES_FC_BB   
   14     1    POSRES_FC_BB    POSRES_FC_BB    POSRES_FC_BB   
   15     1    POSRES_FC_BB    POSRES_FC_BB    POSRES_FC_BB   
   16     1    POSRES_FC_BB    POSRES_FC_BB    POSRES_FC_BB   
   17     1    POSRES_FC_BB    POSRES_FC_BB    POSRES_FC_BB   
   18     1    POSRES_FC_BB    POSRES_FC_BB    POSRES_FC_BB   
   19     1    POSRES_FC_BB    POSRES_FC_BB    POSRES_FC_BB   
   20     1    POSRES_FC_BB    POSRES_FC_BB    POSRES_FC_BB   
   21     1    POSRES_FC_BB    POSRES_FC_BB    POSRES_FC_BB   
   22     1    POSRES_FC_BB    POSRES_FC_BB    POSRES_FC_BB   
   23     1    POSRES_FC_BB    POSRES_FC_BB    POSRES_FC_BB   
#endif
