[ System ]
   1    2    3    4    5    6    7    8    9   10   11   12   13   14   15
  16   17   18   19   20   21   22   23   24   25   26   27   28   29   30
  31   32   33   34   35   36   37   38   39   40   41   42   43   44   45
  46   47   48   49   50   51   52   53   54   55   56   57   58   59   60
  61   62   63   64   65   66   67   68   69   70   71   72   73   74   75
  76   77   78   79   80   81   82   83   84   85   86   87   88   89   90
  91   92   93   94   95   96   97   98   99  100  101  102  103  104  105
 106  107  108  109  110  111  112  113  114  115  116  117  118  119  120
 121  122  123  124  125  126  127  128  129  130  131  132  133  134  135
 136  137  138  139  140  141  142  143  144  145  146  147  148  149  150
 151  152  153  154  155  156  157  158  159  160  161  162  163  164  165
 166  167  168  169  170  171  172  173  174  175  176  177  178  179  180
 181  182  183  184  185  186  187  188  189  190  191  192  193  194  195
 196  197  198  199  200  201  202  203  204  205  206  207  208  209  210
 211  212  213  214  215  216  217  218  219  220  221  222  223  224  225
 226  227  228  229  230  231  232  233  234  235  236  237  238  239  240
 241  242  243  244  245  246  247  248  249  250  251  252  253  254  255
 256  257  258  259  260  261  262  263  264  265  266  267  268  269  270
 271  272  273  274  275  276  277  278  279  280  281  282  283  284  285
 286  287  288  289  290  291  292  293  294  295  296  297  298  299  300
 301  302  303  304  305  306  307  308  309  310  311  312  313  314  315
 316  317  318  319  320  321  322  323  324  325  326  327  328  329  330
 331  332  333  334  335  336  337  338  339  340  341  342  343  344  345
 346  347  348  349  350  351  352  353  354  355  356  357  358  359  360
 361  362  363  364  365  366  367  368  369  370  371  372  373  374  375
 376  377  378  379  380  381  382  383  384  385  386  387  388  389  390
 391  392  393  394  395  396  397  398  399  400  401  402  403  404  405
 406  407  408  409  410  411  412  413  414  415  416  417  418  419  420
 421  422  423  424  425  426  427  428  429  430  431  432  433  434  435
 436  437  438  439  440  441  442  443  444  445  446  447  448  449  450
 451  452  453  454  455  456  457  458  459  460  461  462  463  464  465
 466  467  468  469  470  471  472  473  474  475  476  477  478  479  480
 481  482  483  484  485  486  487  488  489  490  491  492  493  494  495
 496  497  498  499  500  501  502  503  504  505  506  507  508  509  510
 511  512  513  514  515  516  517  518  519  520  521  522  523  524  525
 526  527  528  529  530  531  532  533  534  535  536  537  538  539  540
 541  542  543  544  545  546  547  548  549  550  551  552  553  554  555
 556  557  558  559  560  561  562  563  564  565  566  567  568  569  570
 571  572  573  574  575  576  577  578  579  580  581  582  583  584  585
 586  587  588  589  590  591  592  593  594  595  596  597  598  599  600
 601  602  603  604  605  606  607  608  609  610  611  612  613  614  615
 616  617  618  619  620  621  622  623  624  625  626  627  628  629  630
 631  632  633  634  635  636  637  638  639  640  641  642  643  644  645
 646  647  648  649  650  651  652  653  654  655  656  657  658  659  660
 661  662  663  664  665  666  667  668  669  670  671  672  673  674  675
 676  677  678  679  680  681  682  683  684  685  686  687  688  689  690
 691  692  693  694  695  696  697  698  699  700  701  702  703  704  705
 706  707  708  709  710  711  712  713  714  715  716  717  718  719  720
 721  722  723  724  725  726  727  728  729  730  731  732  733  734  735
 736  737  738  739  740  741  742  743  744  745  746  747  748  749  750
 751  752  753  754  755  756  757  758  759  760  761  762  763  764  765
 766  767  768  769  770  771  772  773  774  775  776  777  778  779  780
 781  782  783  784  785  786  787  788  789  790  791  792  793  794  795
 796  797  798  799  800  801  802  803  804  805  806  807  808  809  810
 811  812  813  814  815  816  817  818  819  820  821  822  823  824  825
 826  827  828  829  830  831  832  833  834  835  836  837  838  839  840
 841  842  843  844  845  846  847  848  849  850  851  852  853  854  855
 856  857  858  859  860  861  862  863  864  865  866  867  868  869  870
 871  872  873  874  875  876  877  878  879  880  881  882  883  884  885
 886  887  888  889  890  891  892  893
[ Protein ]
   1    2    3    4    5    6    7    8    9   10   11   12   13   14   15
  16   17   18   19   20   21   22   23   24   25   26   27   28   29   30
  31   32   33   34   35   36   37   38   39   40   41   42   43   44   45
  46   47   48   49   50   51   52   53   54   55   56   57   58   59   60
  61   62   63   64   65   66   67   68   69   70   71   72   73   74   75
  76   77   78   79   80   81   82   83   84   85   86   87   88   89   90
  91   92   93   94   95   96   97   98   99  100  101  102  103  104  105
 106  107  108  109  110  111  112  113  114  115  116  117  118  119  120
 121  122  123  124  125  126  127  128  129  130  131  132  133  134  135
 136  137  138  139  140  141  142  143  144  145  146  147  148  149  150
 151  152  153  154  155  156  157  158  159  160  161  162  163  164  165
 166  167  168  169  170  171  172  173  174  175  176  177  178  179  180
 181  182  183  184  185  186  187  188  189  190  191  192  193  194  195
 196  197  198  199  200  201  202  203  204  205  206  207  208  209  210
 211  212  213  214  215  216  217  218  219  220  221  222  223  224  225
 226  227  228  229  230  231  232  233  234  235  236  237  238  239  240
 241  242  243  244  245  246  247  248  249  250  251  252  253  254  255
 256  257  258  259  260  261  262  263  264  265  266  267  268  269  270
 271  272  273  274  275  276  277  278  279  280  281  282  283  284  285
 286  287  288  289  290  291  292  293  294  295  296  297  298  299  300
 301  302  303  304  305  306  307  308  309  310  311  312  313  314  315
 316  317  318  319  320  321  322  323  324  325  326  327  328  329  330
 331  332  333  334  335  336  337  338  339  340  341  342  343  344  345
 346  347  348  349  350  351  352  353  354  355  356  357  358  359  360
 361  362  363  364  365  366  367  368  369  370  371  372  373  374  375
 376  377  378  379  380  381  382  383  384  385  386  387  388  389  390
 391  392  393  394  395  396  397  398  399  400  401  402  403  404  405
 406  407  408  409  410  411  412  413  414  415  416  417  418  419  420
 421  422  423  424  425  426  427  428  429  430  431  432  433  434  435
 436  437  438  439  440  441  442  443  444  445  446  447  448  449  450
 451  452  453  454  455  456  457  458  459  460  461  462  463  464  465
 466  467  468  469  470  471  472  473  474  475  476  477  478  479  480
 481  482  483  484  485  486  487  488  489  490  491  492  493  494  495
 496  497  498  499  500  501  502  503  504  505  506  507  508  509  510
 511  512  513  514  515  516  517  518  519  520  521  522  523  524  525
 526  527  528  529  530  531  532  533  534  535  536  537  538  539  540
 541  542  543  544  545  546  547  548  549  550  551  552  553  554  555
 556  557  558  559  560  561  562  563  564  565  566  567  568  569  570
 571  572  573  574  575  576  577  578  579  580  581  582  583  584  585
 586  587  588  589  590  591  592  593  594  595  596  597  598  599  600
 601  602  603  604  605  606  607  608  609  610  611  612  613  614  615
 616  617  618  619  620  621  622  623  624  625  626  627  628  629  630
 631  632  633  634  635  636  637  638  639  640  641  642  643  644  645
 646  647  648  649  650  651  652  653  654  655  656  657  658  659  660
 661  662  663  664  665  666  667  668  669  670  671  672  673  674  675
 676  677  678  679  680  681  682  683  684  685  686  687  688  689  690
 691  692  693  694  695  696  697  698  699  700  701  702  703  704  705
 706  707  708  709  710  711  712  713  714  715  716  717  718  719  720
 721  722  723  724  725  726  727  728  729  730  731  732  733  734  735
 736  737  738  739  740  741  742  743  744  745  746  747  748  749  750
 751  752  753  754  755  756  757  758  759  760  761  762  763  764  765
 766  767  768  769  770  771  772  773  774  775  776  777  778  779  780
 781  782  783  784  785  786  787  788  789  790  791  792  793  794  795
 796  797  798  799  800  801  802  803  804  805  806  807  808  809  810
 811  812  813  814  815  816  817  818  819  820  821  822  823  824  825
 826  827  828  829  830  831  832  833  834  835  836  837  838  839  840
 841  842  843  844  845  846  847  848  849  850  851  852  853  854  855
 856  857  858  859  860  861  862  863  864  865  866  867  868  869  870
 871  872  873  874  875  876  877  878  879  880  881  882  883  884  885
 886  887  888  889  890  891  892  893
[ Protein-H ]
   1    5    7   10   13   14   15   18   19   20   22   24   27   30   31
  32   35   36   37   39   41   44   45   47   49   50   52   54   56   58
  59   60   61   63   65   68   71   74   77   81   82   83   85   87   89
  93   97   98   99  101  104  105  106  108  110  113  114  115  116  117
 118  120  122  125  128  131  134  138  139  140  142  144  147  149  150
 151  153  155  158  160  161  162  164  166  170  171  172  174  176  178
 182  185  189  190  191  193  195  198  199  201  203  204  206  208  210
 212  213  214  215  217  219  222  224  225  226  228  230  233  236  237
 238  239  240  241  243  245  248  249  250  251  252  253  255  258  259
 260  262  264  267  269  270  271  273  275  277  281  284  288  289  290
 292  294  297  298  300  302  303  305  307  309  310  311  312  315  318
 321  323  324  325  327  329  333  334  335  337  339  341  345  347  348
 349  351  353  355  359  362  366  367  368  370  372  376  377  378  380
 382  385  387  388  389  391  393  395  399  402  406  407  408  410  412
 415  416  417  418  419  420  422  424  427  428  430  432  434  436  438
 439  440  442  444  447  450  453  456  460  461  462  464  466  469  472
 475  477  478  481  484  485  486  488  490  493  496  497  498  499  500
 501  503  505  507  511  513  514  515  517  519  522  524  525  526  528
 530  532  536  540  541  542  544  546  548  552  556  557  558  560  562
 564  568  572  573  574  576  578  581  582  584  586  587  589  591  593
 594  595  597  599  601  605  607  608  609  611  614  615  616  618  620
 623  624  626  628  629  631  633  635  636  637  639  642  643  644  646
 648  651  652  653  656  657  658  660  662  665  668  671  673  674  677
 680  681  682  684  686  689  692  693  694  695  696  697  699  701  704
 707  708  709  710  711  712  714  716  719  722  723  724  727  728  729
 731  733  736  737  738  741  742  743  745  747  750  752  756  760  761
 762  764  766  769  771  772  773  775  777  780  781  782  783  784  785
 787  789  792  794  798  802  803  804  806  808  811  813  817  821  822
 823  825  827  830  832  833  834  835  838  841  844  846  847  848  850
 852  854  858  861  865  866  867  869  871  874  876  877  878  880  882
 885  888  889  890  891  892  893
[ C-alpha ]
   5   22   39   63   85  101  108  120  142  153  164  174  193  217  228
 243  255  262  273  292  321  327  337  351  370  380  391  410  422  442
 464  488  503  517  528  544  560  576  597  611  618  639  646  660  684
 699  714  731  745  764  775  787  806  825  844  850  869  880
[ Backbone ]
   1    5   18   20   22   35   37   39   59   61   63   81   83   85   97
  99  101  104  106  108  116  118  120  138  140  142  149  151  153  160
 162  164  170  172  174  189  191  193  213  215  217  224  226  228  239
 241  243  251  253  255  258  260  262  269  271  273  288  290  292  309
 311  321  323  325  327  333  335  337  347  349  351  366  368  370  376
 378  380  387  389  391  406  408  410  418  420  422  438  440  442  460
 462  464  484  486  488  499  501  503  513  515  517  524  526  528  540
 542  544  556  558  560  572  574  576  593  595  597  607  609  611  614
 616  618  635  637  639  642  644  646  656  658  660  680  682  684  695
 697  699  710  712  714  727  729  731  741  743  745  760  762  764  771
 773  775  783  785  787  802  804  806  821  823  825  832  834  844  846
 848  850  865  867  869  876  878  880  891
[ MainChain ]
   1    5   18   19   20   22   35   36   37   39   59   60   61   63   81
  82   83   85   97   98   99  101  104  105  106  108  116  117  118  120
 138  139  140  142  149  150  151  153  160  161  162  164  170  171  172
 174  189  190  191  193  213  214  215  217  224  225  226  228  239  240
 241  243  251  252  253  255  258  259  260  262  269  270  271  273  288
 289  290  292  309  310  311  321  323  324  325  327  333  334  335  337
 347  348  349  351  366  367  368  370  376  377  378  380  387  388  389
 391  406  407  408  410  418  419  420  422  438  439  440  442  460  461
 462  464  484  485  486  488  499  500  501  503  513  514  515  517  524
 525  526  528  540  541  542  544  556  557  558  560  572  573  574  576
 593  594  595  597  607  608  609  611  614  615  616  618  635  636  637
 639  642  643  644  646  656  657  658  660  680  681  682  684  695  696
 697  699  710  711  712  714  727  728  729  731  741  742  743  745  760
 761  762  764  771  772  773  775  783  784  785  787  802  803  804  806
 821  822  823  825  832  833  834  844  846  847  848  850  865  866  867
 869  876  877  878  880  891  892  893
[ MainChain+Cb ]
   1    5    7   18   19   20   22   24   35   36   37   39   41   59   60
  61   63   65   81   82   83   85   87   97   98   99  101  104  105  106
 108  110  116  117  118  120  122  138  139  140  142  144  149  150  151
 153  155  160  161  162  164  166  170  171  172  174  176  189  190  191
 193  195  213  214  215  217  219  224  225  226  228  230  239  240  241
 243  245  251  252  253  255  258  259  260  262  264  269  270  271  273
 275  288  289  290  292  294  309  310  311  318  321  323  324  325  327
 329  333  334  335  337  339  347  348  349  351  353  366  367  368  370
 372  376  377  378  380  382  387  388  389  391  393  406  407  408  410
 412  418  419  420  422  424  438  439  440  442  444  460  461  462  464
 466  484  485  486  488  490  499  500  501  503  505  513  514  515  517
 519  524  525  526  528  530  540  541  542  544  546  556  557  558  560
 562  572  573  574  576  578  593  594  595  597  599  607  608  609  611
 614  615  616  618  620  635  636  637  639  642  643  644  646  648  656
 657  658  660  662  680  681  682  684  686  695  696  697  699  701  710
 711  712  714  716  727  728  729  731  733  741  742  743  745  747  760
 761  762  764  766  771  772  773  775  777  783  784  785  787  789  802
 803  804  806  808  821  822  823  825  827  832  833  834  841  844  846
 847  848  850  852  865  866  867  869  871  876  877  878  880  882  891
 892  893
[ MainChain+H ]
   1    2    3    4    5   18   19   20   21   22   35   36   37   38   39
  59   60   61   62   63   81   82   83   84   85   97   98   99  100  101
 104  105  106  107  108  116  117  118  119  120  138  139  140  141  142
 149  150  151  152  153  160  161  162  163  164  170  171  172  173  174
 189  190  191  192  193  213  214  215  216  217  224  225  226  227  228
 239  240  241  242  243  251  252  253  254  255  258  259  260  261  262
 269  270  271  272  273  288  289  290  291  292  309  310  311  321  323
 324  325  326  327  333  334  335  336  337  347  348  349  350  351  366
 367  368  369  370  376  377  378  379  380  387  388  389  390  391  406
 407  408  409  410  418  419  420  421  422  438  439  440  441  442  460
 461  462  463  464  484  485  486  487  488  499  500  501  502  503  513
 514  515  516  517  524  525  526  527  528  540  541  542  543  544  556
 557  558  559  560  572  573  574  575  576  593  594  595  596  597  607
 608  609  610  611  614  615  616  617  618  635  636  637  638  639  642
 643  644  645  646  656  657  658  659  660  680  681  682  683  684  695
 696  697  698  699  710  711  712  713  714  727  728  729  730  731  741
 742  743  744  745  760  761  762  763  764  771  772  773  774  775  783
 784  785  786  787  802  803  804  805  806  821  822  823  824  825  832
 833  834  844  846  847  848  849  850  865  866  867  868  869  876  877
 878  879  880  891  892  893
[ SideChain ]
   6    7    8    9   10   11   12   13   14   15   16   17   23   24   25
  26   27   28   29   30   31   32   33   34   40   41   42   43   44   45
  46   47   48   49   50   51   52   53   54   55   56   57   58   64   65
  66   67   68   69   70   71   72   73   74   75   76   77   78   79   80
  86   87   88   89   90   91   92   93   94   95   96  102  103  109  110
 111  112  113  114  115  121  122  123  124  125  126  127  128  129  130
 131  132  133  134  135  136  137  143  144  145  146  147  148  154  155
 156  157  158  159  165  166  167  168  169  175  176  177  178  179  180
 181  182  183  184  185  186  187  188  194  195  196  197  198  199  200
 201  202  203  204  205  206  207  208  209  210  211  212  218  219  220
 221  222  223  229  230  231  232  233  234  235  236  237  238  244  245
 246  247  248  249  250  256  257  263  264  265  266  267  268  274  275
 276  277  278  279  280  281  282  283  284  285  286  287  293  294  295
 296  297  298  299  300  301  302  303  304  305  306  307  308  312  313
 314  315  316  317  318  319  320  322  328  329  330  331  332  338  339
 340  341  342  343  344  345  346  352  353  354  355  356  357  358  359
 360  361  362  363  364  365  371  372  373  374  375  381  382  383  384
 385  386  392  393  394  395  396  397  398  399  400  401  402  403  404
 405  411  412  413  414  415  416  417  423  424  425  426  427  428  429
 430  431  432  433  434  435  436  437  443  444  445  446  447  448  449
 450  451  452  453  454  455  456  457  458  459  465  466  467  468  469
 470  471  472  473  474  475  476  477  478  479  480  481  482  483  489
 490  491  492  493  494  495  496  497  498  504  505  506  507  508  509
 510  511  512  518  519  520  521  522  523  529  530  531  532  533  534
 535  536  537  538  539  545  546  547  548  549  550  551  552  553  554
 555  561  562  563  564  565  566  567  568  569  570  571  577  578  579
 580  581  582  583  584  585  586  587  588  589  590  591  592  598  599
 600  601  602  603  604  605  606  612  613  619  620  621  622  623  624
 625  626  627  628  629  630  631  632  633  634  640  641  647  648  649
 650  651  652  653  654  655  661  662  663  664  665  666  667  668  669
 670  671  672  673  674  675  676  677  678  679  685  686  687  688  689
 690  691  692  693  694  700  701  702  703  704  705  706  707  708  709
 715  716  717  718  719  720  721  722  723  724  725  726  732  733  734
 735  736  737  738  739  740  746  747  748  749  750  751  752  753  754
 755  756  757  758  759  765  766  767  768  769  770  776  777  778  779
 780  781  782  788  789  790  791  792  793  794  795  796  797  798  799
 800  801  807  808  809  810  811  812  813  814  815  816  817  818  819
 820  826  827  828  829  830  831  835  836  837  838  839  840  841  842
 843  845  851  852  853  854  855  856  857  858  859  860  861  862  863
 864  870  871  872  873  874  875  881  882  883  884  885  886  887  888
 889  890
[ SideChain-H ]
   7   10   13   14   15   24   27   30   31   32   41   44   45   47   49
  50   52   54   56   58   65   68   71   74   77   87   89   93  110  113
 114  115  122  125  128  131  134  144  147  155  158  166  176  178  182
 185  195  198  199  201  203  204  206  208  210  212  219  222  230  233
 236  237  238  245  248  249  250  264  267  275  277  281  284  294  297
 298  300  302  303  305  307  312  315  318  329  339  341  345  353  355
 359  362  372  382  385  393  395  399  402  412  415  416  417  424  427
 428  430  432  434  436  444  447  450  453  456  466  469  472  475  477
 478  481  490  493  496  497  498  505  507  511  519  522  530  532  536
 546  548  552  562  564  568  578  581  582  584  586  587  589  591  599
 601  605  620  623  624  626  628  629  631  633  648  651  652  653  662
 665  668  671  673  674  677  686  689  692  693  694  701  704  707  708
 709  716  719  722  723  724  733  736  737  738  747  750  752  756  766
 769  777  780  781  782  789  792  794  798  808  811  813  817  827  830
 835  838  841  852  854  858  861  871  874  882  885  888  889  890
