;;
;; Generated by CHARMM-GUI FF-Converter
;;
;; Correspondance:
;; jul316@lehigh.edu or wonpil@lehigh.edu
;;
;; GROMACS topology file for RNAA
;;


[ moleculetype ]
; name	nrexcl
RNAA	     3

[ atoms ]
; nr	type	resnr	residu	atom	cgnr	charge	mass
     1        HN5      4      GUA    H5T      1     0.430000     1.0080   ; qtot  0.430
     2        ON5      4      GUA    O5'      2    -0.660000    15.9994   ; qtot -0.230
     3       CN8B      4      GUA    C5'      3     0.050000    12.0110   ; qtot -0.180
     4        HN8      4      GUA    H5'      4     0.090000     1.0080   ; qtot -0.090
     5        HN8      4      GUA   H5''      5     0.090000     1.0080   ; qtot -0.000
     6        CN7      4      GUA    C4'      6     0.160000    12.0110   ; qtot  0.160
     7        HN7      4      GUA    H4'      7     0.090000     1.0080   ; qtot  0.250
     8       ON6B      4      GUA    O4'      8    -0.500000    15.9994   ; qtot -0.250
     9       CN7B      4      GUA    C1'      9     0.160000    12.0110   ; qtot -0.090
    10        HN7      4      GUA    H1'     10     0.090000     1.0080   ; qtot -0.000
    11       NN2B      4      GUA     N9     11    -0.020000    14.0070   ; qtot -0.020
    12        CN5      4      GUA     C4     12     0.260000    12.0110   ; qtot  0.240
    13        NN1      4      GUA     N2     13    -0.680000    14.0070   ; qtot -0.440
    14        HN1      4      GUA    H21     14     0.320000     1.0080   ; qtot -0.120
    15        HN1      4      GUA    H22     15     0.350000     1.0080   ; qtot  0.230
    16       NN3G      4      GUA     N3     16    -0.740000    14.0070   ; qtot -0.510
    17        CN2      4      GUA     C2     17     0.750000    12.0110   ; qtot  0.240
    18       NN2G      4      GUA     N1     18    -0.340000    14.0070   ; qtot -0.100
    19        HN2      4      GUA     H1     19     0.260000     1.0080   ; qtot  0.160
    20        CN1      4      GUA     C6     20     0.540000    12.0110   ; qtot  0.700
    21        ON1      4      GUA     O6     21    -0.510000    15.9994   ; qtot  0.190
    22       CN5G      4      GUA     C5     22     0.000000    12.0110   ; qtot  0.190
    23        NN4      4      GUA     N7     23    -0.600000    14.0070   ; qtot -0.410
    24        CN4      4      GUA     C8     24     0.250000    12.0110   ; qtot -0.160
    25        HN3      4      GUA     H8     25     0.160000     1.0080   ; qtot -0.000
    26       CN7B      4      GUA    C2'     26     0.140000    12.0110   ; qtot  0.140
    27        HN7      4      GUA   H2''     27     0.090000     1.0080   ; qtot  0.230
    28        ON5      4      GUA    O2'     28    -0.660000    15.9994   ; qtot -0.430
    29        HN5      4      GUA    H2'     29     0.430000     1.0080   ; qtot -0.000
    30        CN7      4      GUA    C3'     30     0.010000    12.0110   ; qtot  0.010
    31        HN7      4      GUA    H3'     31     0.090000     1.0080   ; qtot  0.100
    32        ON2      4      GUA    O3'     32    -0.570000    15.9994   ; qtot -0.470
    33          P      5      CYT      P     33     1.500000    30.9740   ; qtot  1.030
    34        ON3      5      CYT    O1P     34    -0.780000    15.9994   ; qtot  0.250
    35        ON3      5      CYT    O2P     35    -0.780000    15.9994   ; qtot -0.530
    36        ON2      5      CYT    O5'     36    -0.570000    15.9994   ; qtot -1.100
    37       CN8B      5      CYT    C5'     37    -0.080000    12.0110   ; qtot -1.180
    38        HN8      5      CYT    H5'     38     0.090000     1.0080   ; qtot -1.090
    39        HN8      5      CYT   H5''     39     0.090000     1.0080   ; qtot -1.000
    40        CN7      5      CYT    C4'     40     0.160000    12.0110   ; qtot -0.840
    41        HN7      5      CYT    H4'     41     0.090000     1.0080   ; qtot -0.750
    42       ON6B      5      CYT    O4'     42    -0.500000    15.9994   ; qtot -1.250
    43       CN7B      5      CYT    C1'     43     0.160000    12.0110   ; qtot -1.090
    44        HN7      5      CYT    H1'     44     0.090000     1.0080   ; qtot -1.000
    45        NN2      5      CYT     N1     45    -0.130000    14.0070   ; qtot -1.130
    46        CN3      5      CYT     C6     46     0.050000    12.0110   ; qtot -1.080
    47        HN3      5      CYT     H6     47     0.170000     1.0080   ; qtot -0.910
    48        CN3      5      CYT     C5     48    -0.130000    12.0110   ; qtot -1.040
    49        HN3      5      CYT     H5     49     0.070000     1.0080   ; qtot -0.970
    50        CN1      5      CYT     C2     50     0.520000    12.0110   ; qtot -0.450
    51       ON1C      5      CYT     O2     51    -0.490000    15.9994   ; qtot -0.940
    52        NN3      5      CYT     N3     52    -0.660000    14.0070   ; qtot -1.600
    53        CN2      5      CYT     C4     53     0.650000    12.0110   ; qtot -0.950
    54        NN1      5      CYT     N4     54    -0.750000    14.0070   ; qtot -1.700
    55        HN1      5      CYT    H41     55     0.370000     1.0080   ; qtot -1.330
    56        HN1      5      CYT    H42     56     0.330000     1.0080   ; qtot -1.000
    57       CN7B      5      CYT    C2'     57     0.140000    12.0110   ; qtot -0.860
    58        HN7      5      CYT   H2''     58     0.090000     1.0080   ; qtot -0.770
    59        ON5      5      CYT    O2'     59    -0.660000    15.9994   ; qtot -1.430
    60        HN5      5      CYT    H2'     60     0.430000     1.0080   ; qtot -1.000
    61        CN7      5      CYT    C3'     61     0.010000    12.0110   ; qtot -0.990
    62        HN7      5      CYT    H3'     62     0.090000     1.0080   ; qtot -0.900
    63        ON2      5      CYT    O3'     63    -0.570000    15.9994   ; qtot -1.470
    64          P      6      GUA      P     64     1.500000    30.9740   ; qtot  0.030
    65        ON3      6      GUA    O1P     65    -0.780000    15.9994   ; qtot -0.750
    66        ON3      6      GUA    O2P     66    -0.780000    15.9994   ; qtot -1.530
    67        ON2      6      GUA    O5'     67    -0.570000    15.9994   ; qtot -2.100
    68       CN8B      6      GUA    C5'     68    -0.080000    12.0110   ; qtot -2.180
    69        HN8      6      GUA    H5'     69     0.090000     1.0080   ; qtot -2.090
    70        HN8      6      GUA   H5''     70     0.090000     1.0080   ; qtot -2.000
    71        CN7      6      GUA    C4'     71     0.160000    12.0110   ; qtot -1.840
    72        HN7      6      GUA    H4'     72     0.090000     1.0080   ; qtot -1.750
    73       ON6B      6      GUA    O4'     73    -0.500000    15.9994   ; qtot -2.250
    74       CN7B      6      GUA    C1'     74     0.160000    12.0110   ; qtot -2.090
    75        HN7      6      GUA    H1'     75     0.090000     1.0080   ; qtot -2.000
    76       NN2B      6      GUA     N9     76    -0.020000    14.0070   ; qtot -2.020
    77        CN5      6      GUA     C4     77     0.260000    12.0110   ; qtot -1.760
    78        NN1      6      GUA     N2     78    -0.680000    14.0070   ; qtot -2.440
    79        HN1      6      GUA    H21     79     0.320000     1.0080   ; qtot -2.120
    80        HN1      6      GUA    H22     80     0.350000     1.0080   ; qtot -1.770
    81       NN3G      6      GUA     N3     81    -0.740000    14.0070   ; qtot -2.510
    82        CN2      6      GUA     C2     82     0.750000    12.0110   ; qtot -1.760
    83       NN2G      6      GUA     N1     83    -0.340000    14.0070   ; qtot -2.100
    84        HN2      6      GUA     H1     84     0.260000     1.0080   ; qtot -1.840
    85        CN1      6      GUA     C6     85     0.540000    12.0110   ; qtot -1.300
    86        ON1      6      GUA     O6     86    -0.510000    15.9994   ; qtot -1.810
    87       CN5G      6      GUA     C5     87     0.000000    12.0110   ; qtot -1.810
    88        NN4      6      GUA     N7     88    -0.600000    14.0070   ; qtot -2.410
    89        CN4      6      GUA     C8     89     0.250000    12.0110   ; qtot -2.160
    90        HN3      6      GUA     H8     90     0.160000     1.0080   ; qtot -2.000
    91       CN7B      6      GUA    C2'     91     0.140000    12.0110   ; qtot -1.860
    92        HN7      6      GUA   H2''     92     0.090000     1.0080   ; qtot -1.770
    93        ON5      6      GUA    O2'     93    -0.660000    15.9994   ; qtot -2.430
    94        HN5      6      GUA    H2'     94     0.430000     1.0080   ; qtot -2.000
    95        CN7      6      GUA    C3'     95     0.010000    12.0110   ; qtot -1.990
    96        HN7      6      GUA    H3'     96     0.090000     1.0080   ; qtot -1.900
    97        ON2      6      GUA    O3'     97    -0.570000    15.9994   ; qtot -2.470
    98          P      7      ADE      P     98     1.500000    30.9740   ; qtot -0.970
    99        ON3      7      ADE    O1P     99    -0.780000    15.9994   ; qtot -1.750
   100        ON3      7      ADE    O2P    100    -0.780000    15.9994   ; qtot -2.530
   101        ON2      7      ADE    O5'    101    -0.570000    15.9994   ; qtot -3.100
   102       CN8B      7      ADE    C5'    102    -0.080000    12.0110   ; qtot -3.180
   103        HN8      7      ADE    H5'    103     0.090000     1.0080   ; qtot -3.090
   104        HN8      7      ADE   H5''    104     0.090000     1.0080   ; qtot -3.000
   105        CN7      7      ADE    C4'    105     0.160000    12.0110   ; qtot -2.840
   106        HN7      7      ADE    H4'    106     0.090000     1.0080   ; qtot -2.750
   107       ON6B      7      ADE    O4'    107    -0.500000    15.9994   ; qtot -3.250
   108       CN7B      7      ADE    C1'    108     0.160000    12.0110   ; qtot -3.090
   109        HN7      7      ADE    H1'    109     0.090000     1.0080   ; qtot -3.000
   110        NN2      7      ADE     N9    110    -0.050000    14.0070   ; qtot -3.050
   111        CN5      7      ADE     C5    111     0.280000    12.0110   ; qtot -2.770
   112        NN4      7      ADE     N7    112    -0.710000    14.0070   ; qtot -3.480
   113        CN4      7      ADE     C8    113     0.340000    12.0110   ; qtot -3.140
   114        HN3      7      ADE     H8    114     0.120000     1.0080   ; qtot -3.020
   115       NN3A      7      ADE     N1    115    -0.740000    14.0070   ; qtot -3.760
   116        CN4      7      ADE     C2    116     0.500000    12.0110   ; qtot -3.260
   117        HN3      7      ADE     H2    117     0.130000     1.0080   ; qtot -3.130
   118       NN3A      7      ADE     N3    118    -0.750000    14.0070   ; qtot -3.880
   119        CN5      7      ADE     C4    119     0.430000    12.0110   ; qtot -3.450
   120        CN2      7      ADE     C6    120     0.460000    12.0110   ; qtot -2.990
   121        NN1      7      ADE     N6    121    -0.770000    14.0070   ; qtot -3.760
   122        HN1      7      ADE    H61    122     0.380000     1.0080   ; qtot -3.380
   123        HN1      7      ADE    H62    123     0.380000     1.0080   ; qtot -3.000
   124       CN7B      7      ADE    C2'    124     0.140000    12.0110   ; qtot -2.860
   125        HN7      7      ADE   H2''    125     0.090000     1.0080   ; qtot -2.770
   126        ON5      7      ADE    O2'    126    -0.660000    15.9994   ; qtot -3.430
   127        HN5      7      ADE    H2'    127     0.430000     1.0080   ; qtot -3.000
   128        CN7      7      ADE    C3'    128     0.010000    12.0110   ; qtot -2.990
   129        HN7      7      ADE    H3'    129     0.090000     1.0080   ; qtot -2.900
   130        ON2      7      ADE    O3'    130    -0.570000    15.9994   ; qtot -3.470
   131          P      8      CYT      P    131     1.500000    30.9740   ; qtot -1.970
   132        ON3      8      CYT    O1P    132    -0.780000    15.9994   ; qtot -2.750
   133        ON3      8      CYT    O2P    133    -0.780000    15.9994   ; qtot -3.530
   134        ON2      8      CYT    O5'    134    -0.570000    15.9994   ; qtot -4.100
   135       CN8B      8      CYT    C5'    135    -0.080000    12.0110   ; qtot -4.180
   136        HN8      8      CYT    H5'    136     0.090000     1.0080   ; qtot -4.090
   137        HN8      8      CYT   H5''    137     0.090000     1.0080   ; qtot -4.000
   138        CN7      8      CYT    C4'    138     0.160000    12.0110   ; qtot -3.840
   139        HN7      8      CYT    H4'    139     0.090000     1.0080   ; qtot -3.750
   140       ON6B      8      CYT    O4'    140    -0.500000    15.9994   ; qtot -4.250
   141       CN7B      8      CYT    C1'    141     0.160000    12.0110   ; qtot -4.090
   142        HN7      8      CYT    H1'    142     0.090000     1.0080   ; qtot -4.000
   143        NN2      8      CYT     N1    143    -0.130000    14.0070   ; qtot -4.130
   144        CN3      8      CYT     C6    144     0.050000    12.0110   ; qtot -4.080
   145        HN3      8      CYT     H6    145     0.170000     1.0080   ; qtot -3.910
   146        CN3      8      CYT     C5    146    -0.130000    12.0110   ; qtot -4.040
   147        HN3      8      CYT     H5    147     0.070000     1.0080   ; qtot -3.970
   148        CN1      8      CYT     C2    148     0.520000    12.0110   ; qtot -3.450
   149       ON1C      8      CYT     O2    149    -0.490000    15.9994   ; qtot -3.940
   150        NN3      8      CYT     N3    150    -0.660000    14.0070   ; qtot -4.600
   151        CN2      8      CYT     C4    151     0.650000    12.0110   ; qtot -3.950
   152        NN1      8      CYT     N4    152    -0.750000    14.0070   ; qtot -4.700
   153        HN1      8      CYT    H41    153     0.370000     1.0080   ; qtot -4.330
   154        HN1      8      CYT    H42    154     0.330000     1.0080   ; qtot -4.000
   155       CN7B      8      CYT    C2'    155     0.140000    12.0110   ; qtot -3.860
   156        HN7      8      CYT   H2''    156     0.090000     1.0080   ; qtot -3.770
   157        ON5      8      CYT    O2'    157    -0.660000    15.9994   ; qtot -4.430
   158        HN5      8      CYT    H2'    158     0.430000     1.0080   ; qtot -4.000
   159        CN7      8      CYT    C3'    159     0.010000    12.0110   ; qtot -3.990
   160        HN7      8      CYT    H3'    160     0.090000     1.0080   ; qtot -3.900
   161        ON2      8      CYT    O3'    161    -0.570000    15.9994   ; qtot -4.470
   162          P      9      URA      P    162     1.500000    30.9740   ; qtot -2.970
   163        ON3      9      URA    O1P    163    -0.780000    15.9994   ; qtot -3.750
   164        ON3      9      URA    O2P    164    -0.780000    15.9994   ; qtot -4.530
   165        ON2      9      URA    O5'    165    -0.570000    15.9994   ; qtot -5.100
   166       CN8B      9      URA    C5'    166    -0.080000    12.0110   ; qtot -5.180
   167        HN8      9      URA    H5'    167     0.090000     1.0080   ; qtot -5.090
   168        HN8      9      URA   H5''    168     0.090000     1.0080   ; qtot -5.000
   169        CN7      9      URA    C4'    169     0.160000    12.0110   ; qtot -4.840
   170        HN7      9      URA    H4'    170     0.090000     1.0080   ; qtot -4.750
   171       ON6B      9      URA    O4'    171    -0.500000    15.9994   ; qtot -5.250
   172       CN7B      9      URA    C1'    172     0.160000    12.0110   ; qtot -5.090
   173        HN7      9      URA    H1'    173     0.090000     1.0080   ; qtot -5.000
   174       NN2B      9      URA     N1    174    -0.340000    14.0070   ; qtot -5.340
   175        CN3      9      URA     C6    175     0.200000    12.0110   ; qtot -5.140
   176        HN3      9      URA     H6    176     0.140000     1.0080   ; qtot -5.000
   177       CN1T      9      URA     C2    177     0.550000    12.0110   ; qtot -4.450
   178        ON1      9      URA     O2    178    -0.450000    15.9994   ; qtot -4.900
   179       NN2U      9      URA     N3    179    -0.460000    14.0070   ; qtot -5.360
   180        HN2      9      URA     H3    180     0.360000     1.0080   ; qtot -5.000
   181        CN1      9      URA     C4    181     0.530000    12.0110   ; qtot -4.470
   182        ON1      9      URA     O4    182    -0.480000    15.9994   ; qtot -4.950
   183        CN3      9      URA     C5    183    -0.150000    12.0110   ; qtot -5.100
   184        HN3      9      URA     H5    184     0.100000     1.0080   ; qtot -5.000
   185       CN7B      9      URA    C2'    185     0.140000    12.0110   ; qtot -4.860
   186        HN7      9      URA   H2''    186     0.090000     1.0080   ; qtot -4.770
   187        ON5      9      URA    O2'    187    -0.660000    15.9994   ; qtot -5.430
   188        HN5      9      URA    H2'    188     0.430000     1.0080   ; qtot -5.000
   189        CN7      9      URA    C3'    189     0.010000    12.0110   ; qtot -4.990
   190        HN7      9      URA    H3'    190     0.090000     1.0080   ; qtot -4.900
   191        ON2      9      URA    O3'    191    -0.570000    15.9994   ; qtot -5.470
   192          P     10      CYT      P    192     1.500000    30.9740   ; qtot -3.970
   193        ON3     10      CYT    O1P    193    -0.780000    15.9994   ; qtot -4.750
   194        ON3     10      CYT    O2P    194    -0.780000    15.9994   ; qtot -5.530
   195        ON2     10      CYT    O5'    195    -0.570000    15.9994   ; qtot -6.100
   196       CN8B     10      CYT    C5'    196    -0.080000    12.0110   ; qtot -6.180
   197        HN8     10      CYT    H5'    197     0.090000     1.0080   ; qtot -6.090
   198        HN8     10      CYT   H5''    198     0.090000     1.0080   ; qtot -6.000
   199        CN7     10      CYT    C4'    199     0.160000    12.0110   ; qtot -5.840
   200        HN7     10      CYT    H4'    200     0.090000     1.0080   ; qtot -5.750
   201       ON6B     10      CYT    O4'    201    -0.500000    15.9994   ; qtot -6.250
   202       CN7B     10      CYT    C1'    202     0.160000    12.0110   ; qtot -6.090
   203        HN7     10      CYT    H1'    203     0.090000     1.0080   ; qtot -6.000
   204        NN2     10      CYT     N1    204    -0.130000    14.0070   ; qtot -6.130
   205        CN3     10      CYT     C6    205     0.050000    12.0110   ; qtot -6.080
   206        HN3     10      CYT     H6    206     0.170000     1.0080   ; qtot -5.910
   207        CN3     10      CYT     C5    207    -0.130000    12.0110   ; qtot -6.040
   208        HN3     10      CYT     H5    208     0.070000     1.0080   ; qtot -5.970
   209        CN1     10      CYT     C2    209     0.520000    12.0110   ; qtot -5.450
   210       ON1C     10      CYT     O2    210    -0.490000    15.9994   ; qtot -5.940
   211        NN3     10      CYT     N3    211    -0.660000    14.0070   ; qtot -6.600
   212        CN2     10      CYT     C4    212     0.650000    12.0110   ; qtot -5.950
   213        NN1     10      CYT     N4    213    -0.750000    14.0070   ; qtot -6.700
   214        HN1     10      CYT    H41    214     0.370000     1.0080   ; qtot -6.330
   215        HN1     10      CYT    H42    215     0.330000     1.0080   ; qtot -6.000
   216       CN7B     10      CYT    C2'    216     0.140000    12.0110   ; qtot -5.860
   217        HN7     10      CYT   H2''    217     0.090000     1.0080   ; qtot -5.770
   218        ON5     10      CYT    O2'    218    -0.660000    15.9994   ; qtot -6.430
   219        HN5     10      CYT    H2'    219     0.430000     1.0080   ; qtot -6.000
   220        CN7     10      CYT    C3'    220     0.010000    12.0110   ; qtot -5.990
   221        HN7     10      CYT    H3'    221     0.090000     1.0080   ; qtot -5.900
   222        ON2     10      CYT    O3'    222    -0.570000    15.9994   ; qtot -6.470
   223          P     11      GUA      P    223     1.500000    30.9740   ; qtot -4.970
   224        ON3     11      GUA    O1P    224    -0.780000    15.9994   ; qtot -5.750
   225        ON3     11      GUA    O2P    225    -0.780000    15.9994   ; qtot -6.530
   226        ON2     11      GUA    O5'    226    -0.570000    15.9994   ; qtot -7.100
   227       CN8B     11      GUA    C5'    227    -0.080000    12.0110   ; qtot -7.180
   228        HN8     11      GUA    H5'    228     0.090000     1.0080   ; qtot -7.090
   229        HN8     11      GUA   H5''    229     0.090000     1.0080   ; qtot -7.000
   230        CN7     11      GUA    C4'    230     0.160000    12.0110   ; qtot -6.840
   231        HN7     11      GUA    H4'    231     0.090000     1.0080   ; qtot -6.750
   232       ON6B     11      GUA    O4'    232    -0.500000    15.9994   ; qtot -7.250
   233       CN7B     11      GUA    C1'    233     0.160000    12.0110   ; qtot -7.090
   234        HN7     11      GUA    H1'    234     0.090000     1.0080   ; qtot -7.000
   235       NN2B     11      GUA     N9    235    -0.020000    14.0070   ; qtot -7.020
   236        CN5     11      GUA     C4    236     0.260000    12.0110   ; qtot -6.760
   237        NN1     11      GUA     N2    237    -0.680000    14.0070   ; qtot -7.440
   238        HN1     11      GUA    H21    238     0.320000     1.0080   ; qtot -7.120
   239        HN1     11      GUA    H22    239     0.350000     1.0080   ; qtot -6.770
   240       NN3G     11      GUA     N3    240    -0.740000    14.0070   ; qtot -7.510
   241        CN2     11      GUA     C2    241     0.750000    12.0110   ; qtot -6.760
   242       NN2G     11      GUA     N1    242    -0.340000    14.0070   ; qtot -7.100
   243        HN2     11      GUA     H1    243     0.260000     1.0080   ; qtot -6.840
   244        CN1     11      GUA     C6    244     0.540000    12.0110   ; qtot -6.300
   245        ON1     11      GUA     O6    245    -0.510000    15.9994   ; qtot -6.810
   246       CN5G     11      GUA     C5    246     0.000000    12.0110   ; qtot -6.810
   247        NN4     11      GUA     N7    247    -0.600000    14.0070   ; qtot -7.410
   248        CN4     11      GUA     C8    248     0.250000    12.0110   ; qtot -7.160
   249        HN3     11      GUA     H8    249     0.160000     1.0080   ; qtot -7.000
   250       CN7B     11      GUA    C2'    250     0.140000    12.0110   ; qtot -6.860
   251        HN7     11      GUA   H2''    251     0.090000     1.0080   ; qtot -6.770
   252        ON5     11      GUA    O2'    252    -0.660000    15.9994   ; qtot -7.430
   253        HN5     11      GUA    H2'    253     0.430000     1.0080   ; qtot -7.000
   254        CN7     11      GUA    C3'    254     0.010000    12.0110   ; qtot -6.990
   255        HN7     11      GUA    H3'    255     0.090000     1.0080   ; qtot -6.900
   256        ON2     11      GUA    O3'    256    -0.570000    15.9994   ; qtot -7.470
   257          P     12      GUA      P    257     1.500000    30.9740   ; qtot -5.970
   258        ON3     12      GUA    O1P    258    -0.780000    15.9994   ; qtot -6.750
   259        ON3     12      GUA    O2P    259    -0.780000    15.9994   ; qtot -7.530
   260        ON2     12      GUA    O5'    260    -0.570000    15.9994   ; qtot -8.100
   261       CN8B     12      GUA    C5'    261    -0.080000    12.0110   ; qtot -8.180
   262        HN8     12      GUA    H5'    262     0.090000     1.0080   ; qtot -8.090
   263        HN8     12      GUA   H5''    263     0.090000     1.0080   ; qtot -8.000
   264        CN7     12      GUA    C4'    264     0.160000    12.0110   ; qtot -7.840
   265        HN7     12      GUA    H4'    265     0.090000     1.0080   ; qtot -7.750
   266       ON6B     12      GUA    O4'    266    -0.500000    15.9994   ; qtot -8.250
   267       CN7B     12      GUA    C1'    267     0.160000    12.0110   ; qtot -8.090
   268        HN7     12      GUA    H1'    268     0.090000     1.0080   ; qtot -8.000
   269       NN2B     12      GUA     N9    269    -0.020000    14.0070   ; qtot -8.020
   270        CN5     12      GUA     C4    270     0.260000    12.0110   ; qtot -7.760
   271        NN1     12      GUA     N2    271    -0.680000    14.0070   ; qtot -8.440
   272        HN1     12      GUA    H21    272     0.320000     1.0080   ; qtot -8.120
   273        HN1     12      GUA    H22    273     0.350000     1.0080   ; qtot -7.770
   274       NN3G     12      GUA     N3    274    -0.740000    14.0070   ; qtot -8.510
   275        CN2     12      GUA     C2    275     0.750000    12.0110   ; qtot -7.760
   276       NN2G     12      GUA     N1    276    -0.340000    14.0070   ; qtot -8.100
   277        HN2     12      GUA     H1    277     0.260000     1.0080   ; qtot -7.840
   278        CN1     12      GUA     C6    278     0.540000    12.0110   ; qtot -7.300
   279        ON1     12      GUA     O6    279    -0.510000    15.9994   ; qtot -7.810
   280       CN5G     12      GUA     C5    280     0.000000    12.0110   ; qtot -7.810
   281        NN4     12      GUA     N7    281    -0.600000    14.0070   ; qtot -8.410
   282        CN4     12      GUA     C8    282     0.250000    12.0110   ; qtot -8.160
   283        HN3     12      GUA     H8    283     0.160000     1.0080   ; qtot -8.000
   284       CN7B     12      GUA    C2'    284     0.140000    12.0110   ; qtot -7.860
   285        HN7     12      GUA   H2''    285     0.090000     1.0080   ; qtot -7.770
   286        ON5     12      GUA    O2'    286    -0.660000    15.9994   ; qtot -8.430
   287        HN5     12      GUA    H2'    287     0.430000     1.0080   ; qtot -8.000
   288        CN7     12      GUA    C3'    288     0.010000    12.0110   ; qtot -7.990
   289        HN7     12      GUA    H3'    289     0.090000     1.0080   ; qtot -7.900
   290        ON2     12      GUA    O3'    290    -0.570000    15.9994   ; qtot -8.470
   291          P     13      GUA      P    291     1.500000    30.9740   ; qtot -6.970
   292        ON3     13      GUA    O1P    292    -0.780000    15.9994   ; qtot -7.750
   293        ON3     13      GUA    O2P    293    -0.780000    15.9994   ; qtot -8.530
   294        ON2     13      GUA    O5'    294    -0.570000    15.9994   ; qtot -9.100
   295       CN8B     13      GUA    C5'    295    -0.080000    12.0110   ; qtot -9.180
   296        HN8     13      GUA    H5'    296     0.090000     1.0080   ; qtot -9.090
   297        HN8     13      GUA   H5''    297     0.090000     1.0080   ; qtot -9.000
   298        CN7     13      GUA    C4'    298     0.160000    12.0110   ; qtot -8.840
   299        HN7     13      GUA    H4'    299     0.090000     1.0080   ; qtot -8.750
   300       ON6B     13      GUA    O4'    300    -0.500000    15.9994   ; qtot -9.250
   301       CN7B     13      GUA    C1'    301     0.160000    12.0110   ; qtot -9.090
   302        HN7     13      GUA    H1'    302     0.090000     1.0080   ; qtot -9.000
   303       NN2B     13      GUA     N9    303    -0.020000    14.0070   ; qtot -9.020
   304        CN5     13      GUA     C4    304     0.260000    12.0110   ; qtot -8.760
   305        NN1     13      GUA     N2    305    -0.680000    14.0070   ; qtot -9.440
   306        HN1     13      GUA    H21    306     0.320000     1.0080   ; qtot -9.120
   307        HN1     13      GUA    H22    307     0.350000     1.0080   ; qtot -8.770
   308       NN3G     13      GUA     N3    308    -0.740000    14.0070   ; qtot -9.510
   309        CN2     13      GUA     C2    309     0.750000    12.0110   ; qtot -8.760
   310       NN2G     13      GUA     N1    310    -0.340000    14.0070   ; qtot -9.100
   311        HN2     13      GUA     H1    311     0.260000     1.0080   ; qtot -8.840
   312        CN1     13      GUA     C6    312     0.540000    12.0110   ; qtot -8.300
   313        ON1     13      GUA     O6    313    -0.510000    15.9994   ; qtot -8.810
   314       CN5G     13      GUA     C5    314     0.000000    12.0110   ; qtot -8.810
   315        NN4     13      GUA     N7    315    -0.600000    14.0070   ; qtot -9.410
   316        CN4     13      GUA     C8    316     0.250000    12.0110   ; qtot -9.160
   317        HN3     13      GUA     H8    317     0.160000     1.0080   ; qtot -9.000
   318       CN7B     13      GUA    C2'    318     0.140000    12.0110   ; qtot -8.860
   319        HN7     13      GUA   H2''    319     0.090000     1.0080   ; qtot -8.770
   320        ON5     13      GUA    O2'    320    -0.660000    15.9994   ; qtot -9.430
   321        HN5     13      GUA    H2'    321     0.430000     1.0080   ; qtot -9.000
   322        CN7     13      GUA    C3'    322     0.010000    12.0110   ; qtot -8.990
   323        HN7     13      GUA    H3'    323     0.090000     1.0080   ; qtot -8.900
   324        ON2     13      GUA    O3'    324    -0.570000    15.9994   ; qtot -9.470
   325          P     14      GUA      P    325     1.500000    30.9740   ; qtot -7.970
   326        ON3     14      GUA    O1P    326    -0.780000    15.9994   ; qtot -8.750
   327        ON3     14      GUA    O2P    327    -0.780000    15.9994   ; qtot -9.530
   328        ON2     14      GUA    O5'    328    -0.570000    15.9994   ; qtot -10.100
   329       CN8B     14      GUA    C5'    329    -0.080000    12.0110   ; qtot -10.180
   330        HN8     14      GUA    H5'    330     0.090000     1.0080   ; qtot -10.090
   331        HN8     14      GUA   H5''    331     0.090000     1.0080   ; qtot -10.000
   332        CN7     14      GUA    C4'    332     0.160000    12.0110   ; qtot -9.840
   333        HN7     14      GUA    H4'    333     0.090000     1.0080   ; qtot -9.750
   334       ON6B     14      GUA    O4'    334    -0.500000    15.9994   ; qtot -10.250
   335       CN7B     14      GUA    C1'    335     0.160000    12.0110   ; qtot -10.090
   336        HN7     14      GUA    H1'    336     0.090000     1.0080   ; qtot -10.000
   337       NN2B     14      GUA     N9    337    -0.020000    14.0070   ; qtot -10.020
   338        CN5     14      GUA     C4    338     0.260000    12.0110   ; qtot -9.760
   339        NN1     14      GUA     N2    339    -0.680000    14.0070   ; qtot -10.440
   340        HN1     14      GUA    H21    340     0.320000     1.0080   ; qtot -10.120
   341        HN1     14      GUA    H22    341     0.350000     1.0080   ; qtot -9.770
   342       NN3G     14      GUA     N3    342    -0.740000    14.0070   ; qtot -10.510
   343        CN2     14      GUA     C2    343     0.750000    12.0110   ; qtot -9.760
   344       NN2G     14      GUA     N1    344    -0.340000    14.0070   ; qtot -10.100
   345        HN2     14      GUA     H1    345     0.260000     1.0080   ; qtot -9.840
   346        CN1     14      GUA     C6    346     0.540000    12.0110   ; qtot -9.300
   347        ON1     14      GUA     O6    347    -0.510000    15.9994   ; qtot -9.810
   348       CN5G     14      GUA     C5    348     0.000000    12.0110   ; qtot -9.810
   349        NN4     14      GUA     N7    349    -0.600000    14.0070   ; qtot -10.410
   350        CN4     14      GUA     C8    350     0.250000    12.0110   ; qtot -10.160
   351        HN3     14      GUA     H8    351     0.160000     1.0080   ; qtot -10.000
   352       CN7B     14      GUA    C2'    352     0.140000    12.0110   ; qtot -9.860
   353        HN7     14      GUA   H2''    353     0.090000     1.0080   ; qtot -9.770
   354        ON5     14      GUA    O2'    354    -0.660000    15.9994   ; qtot -10.430
   355        HN5     14      GUA    H2'    355     0.430000     1.0080   ; qtot -10.000
   356        CN7     14      GUA    C3'    356     0.010000    12.0110   ; qtot -9.990
   357        HN7     14      GUA    H3'    357     0.090000     1.0080   ; qtot -9.900
   358        ON2     14      GUA    O3'    358    -0.570000    15.9994   ; qtot -10.470
   359          P     15      URA      P    359     1.500000    30.9740   ; qtot -8.970
   360        ON3     15      URA    O1P    360    -0.780000    15.9994   ; qtot -9.750
   361        ON3     15      URA    O2P    361    -0.780000    15.9994   ; qtot -10.530
   362        ON2     15      URA    O5'    362    -0.570000    15.9994   ; qtot -11.100
   363       CN8B     15      URA    C5'    363    -0.080000    12.0110   ; qtot -11.180
   364        HN8     15      URA    H5'    364     0.090000     1.0080   ; qtot -11.090
   365        HN8     15      URA   H5''    365     0.090000     1.0080   ; qtot -11.000
   366        CN7     15      URA    C4'    366     0.160000    12.0110   ; qtot -10.840
   367        HN7     15      URA    H4'    367     0.090000     1.0080   ; qtot -10.750
   368       ON6B     15      URA    O4'    368    -0.500000    15.9994   ; qtot -11.250
   369       CN7B     15      URA    C1'    369     0.160000    12.0110   ; qtot -11.090
   370        HN7     15      URA    H1'    370     0.090000     1.0080   ; qtot -11.000
   371       NN2B     15      URA     N1    371    -0.340000    14.0070   ; qtot -11.340
   372        CN3     15      URA     C6    372     0.200000    12.0110   ; qtot -11.140
   373        HN3     15      URA     H6    373     0.140000     1.0080   ; qtot -11.000
   374       CN1T     15      URA     C2    374     0.550000    12.0110   ; qtot -10.450
   375        ON1     15      URA     O2    375    -0.450000    15.9994   ; qtot -10.900
   376       NN2U     15      URA     N3    376    -0.460000    14.0070   ; qtot -11.360
   377        HN2     15      URA     H3    377     0.360000     1.0080   ; qtot -11.000
   378        CN1     15      URA     C4    378     0.530000    12.0110   ; qtot -10.470
   379        ON1     15      URA     O4    379    -0.480000    15.9994   ; qtot -10.950
   380        CN3     15      URA     C5    380    -0.150000    12.0110   ; qtot -11.100
   381        HN3     15      URA     H5    381     0.100000     1.0080   ; qtot -11.000
   382       CN7B     15      URA    C2'    382     0.140000    12.0110   ; qtot -10.860
   383        HN7     15      URA   H2''    383     0.090000     1.0080   ; qtot -10.770
   384        ON5     15      URA    O2'    384    -0.660000    15.9994   ; qtot -11.430
   385        HN5     15      URA    H2'    385     0.430000     1.0080   ; qtot -11.000
   386        CN7     15      URA    C3'    386     0.010000    12.0110   ; qtot -10.990
   387        HN7     15      URA    H3'    387     0.090000     1.0080   ; qtot -10.900
   388        ON2     15      URA    O3'    388    -0.570000    15.9994   ; qtot -11.470
   389          P     16      GUA      P    389     1.500000    30.9740   ; qtot -9.970
   390        ON3     16      GUA    O1P    390    -0.780000    15.9994   ; qtot -10.750
   391        ON3     16      GUA    O2P    391    -0.780000    15.9994   ; qtot -11.530
   392        ON2     16      GUA    O5'    392    -0.570000    15.9994   ; qtot -12.100
   393       CN8B     16      GUA    C5'    393    -0.080000    12.0110   ; qtot -12.180
   394        HN8     16      GUA    H5'    394     0.090000     1.0080   ; qtot -12.090
   395        HN8     16      GUA   H5''    395     0.090000     1.0080   ; qtot -12.000
   396        CN7     16      GUA    C4'    396     0.160000    12.0110   ; qtot -11.840
   397        HN7     16      GUA    H4'    397     0.090000     1.0080   ; qtot -11.750
   398       ON6B     16      GUA    O4'    398    -0.500000    15.9994   ; qtot -12.250
   399       CN7B     16      GUA    C1'    399     0.160000    12.0110   ; qtot -12.090
   400        HN7     16      GUA    H1'    400     0.090000     1.0080   ; qtot -12.000
   401       NN2B     16      GUA     N9    401    -0.020000    14.0070   ; qtot -12.020
   402        CN5     16      GUA     C4    402     0.260000    12.0110   ; qtot -11.760
   403        NN1     16      GUA     N2    403    -0.680000    14.0070   ; qtot -12.440
   404        HN1     16      GUA    H21    404     0.320000     1.0080   ; qtot -12.120
   405        HN1     16      GUA    H22    405     0.350000     1.0080   ; qtot -11.770
   406       NN3G     16      GUA     N3    406    -0.740000    14.0070   ; qtot -12.510
   407        CN2     16      GUA     C2    407     0.750000    12.0110   ; qtot -11.760
   408       NN2G     16      GUA     N1    408    -0.340000    14.0070   ; qtot -12.100
   409        HN2     16      GUA     H1    409     0.260000     1.0080   ; qtot -11.840
   410        CN1     16      GUA     C6    410     0.540000    12.0110   ; qtot -11.300
   411        ON1     16      GUA     O6    411    -0.510000    15.9994   ; qtot -11.810
   412       CN5G     16      GUA     C5    412     0.000000    12.0110   ; qtot -11.810
   413        NN4     16      GUA     N7    413    -0.600000    14.0070   ; qtot -12.410
   414        CN4     16      GUA     C8    414     0.250000    12.0110   ; qtot -12.160
   415        HN3     16      GUA     H8    415     0.160000     1.0080   ; qtot -12.000
   416       CN7B     16      GUA    C2'    416     0.140000    12.0110   ; qtot -11.860
   417        HN7     16      GUA   H2''    417     0.090000     1.0080   ; qtot -11.770
   418        ON5     16      GUA    O2'    418    -0.660000    15.9994   ; qtot -12.430
   419        HN5     16      GUA    H2'    419     0.430000     1.0080   ; qtot -12.000
   420        CN7     16      GUA    C3'    420     0.010000    12.0110   ; qtot -11.990
   421        HN7     16      GUA    H3'    421     0.090000     1.0080   ; qtot -11.900
   422        ON2     16      GUA    O3'    422    -0.570000    15.9994   ; qtot -12.470
   423          P     17      CYT      P    423     1.500000    30.9740   ; qtot -10.970
   424        ON3     17      CYT    O1P    424    -0.780000    15.9994   ; qtot -11.750
   425        ON3     17      CYT    O2P    425    -0.780000    15.9994   ; qtot -12.530
   426        ON2     17      CYT    O5'    426    -0.570000    15.9994   ; qtot -13.100
   427       CN8B     17      CYT    C5'    427    -0.080000    12.0110   ; qtot -13.180
   428        HN8     17      CYT    H5'    428     0.090000     1.0080   ; qtot -13.090
   429        HN8     17      CYT   H5''    429     0.090000     1.0080   ; qtot -13.000
   430        CN7     17      CYT    C4'    430     0.160000    12.0110   ; qtot -12.840
   431        HN7     17      CYT    H4'    431     0.090000     1.0080   ; qtot -12.750
   432       ON6B     17      CYT    O4'    432    -0.500000    15.9994   ; qtot -13.250
   433       CN7B     17      CYT    C1'    433     0.160000    12.0110   ; qtot -13.090
   434        HN7     17      CYT    H1'    434     0.090000     1.0080   ; qtot -13.000
   435        NN2     17      CYT     N1    435    -0.130000    14.0070   ; qtot -13.130
   436        CN3     17      CYT     C6    436     0.050000    12.0110   ; qtot -13.080
   437        HN3     17      CYT     H6    437     0.170000     1.0080   ; qtot -12.910
   438        CN3     17      CYT     C5    438    -0.130000    12.0110   ; qtot -13.040
   439        HN3     17      CYT     H5    439     0.070000     1.0080   ; qtot -12.970
   440        CN1     17      CYT     C2    440     0.520000    12.0110   ; qtot -12.450
   441       ON1C     17      CYT     O2    441    -0.490000    15.9994   ; qtot -12.940
   442        NN3     17      CYT     N3    442    -0.660000    14.0070   ; qtot -13.600
   443        CN2     17      CYT     C4    443     0.650000    12.0110   ; qtot -12.950
   444        NN1     17      CYT     N4    444    -0.750000    14.0070   ; qtot -13.700
   445        HN1     17      CYT    H41    445     0.370000     1.0080   ; qtot -13.330
   446        HN1     17      CYT    H42    446     0.330000     1.0080   ; qtot -13.000
   447       CN7B     17      CYT    C2'    447     0.140000    12.0110   ; qtot -12.860
   448        HN7     17      CYT   H2''    448     0.090000     1.0080   ; qtot -12.770
   449        ON5     17      CYT    O2'    449    -0.660000    15.9994   ; qtot -13.430
   450        HN5     17      CYT    H2'    450     0.430000     1.0080   ; qtot -13.000
   451        CN7     17      CYT    C3'    451     0.010000    12.0110   ; qtot -12.990
   452        HN7     17      CYT    H3'    452     0.090000     1.0080   ; qtot -12.900
   453        ON2     17      CYT    O3'    453    -0.570000    15.9994   ; qtot -13.470
   454          P     18      CYT      P    454     1.500000    30.9740   ; qtot -11.970
   455        ON3     18      CYT    O1P    455    -0.780000    15.9994   ; qtot -12.750
   456        ON3     18      CYT    O2P    456    -0.780000    15.9994   ; qtot -13.530
   457        ON2     18      CYT    O5'    457    -0.570000    15.9994   ; qtot -14.100
   458       CN8B     18      CYT    C5'    458    -0.080000    12.0110   ; qtot -14.180
   459        HN8     18      CYT    H5'    459     0.090000     1.0080   ; qtot -14.090
   460        HN8     18      CYT   H5''    460     0.090000     1.0080   ; qtot -14.000
   461        CN7     18      CYT    C4'    461     0.160000    12.0110   ; qtot -13.840
   462        HN7     18      CYT    H4'    462     0.090000     1.0080   ; qtot -13.750
   463       ON6B     18      CYT    O4'    463    -0.500000    15.9994   ; qtot -14.250
   464       CN7B     18      CYT    C1'    464     0.160000    12.0110   ; qtot -14.090
   465        HN7     18      CYT    H1'    465     0.090000     1.0080   ; qtot -14.000
   466        NN2     18      CYT     N1    466    -0.130000    14.0070   ; qtot -14.130
   467        CN3     18      CYT     C6    467     0.050000    12.0110   ; qtot -14.080
   468        HN3     18      CYT     H6    468     0.170000     1.0080   ; qtot -13.910
   469        CN3     18      CYT     C5    469    -0.130000    12.0110   ; qtot -14.040
   470        HN3     18      CYT     H5    470     0.070000     1.0080   ; qtot -13.970
   471        CN1     18      CYT     C2    471     0.520000    12.0110   ; qtot -13.450
   472       ON1C     18      CYT     O2    472    -0.490000    15.9994   ; qtot -13.940
   473        NN3     18      CYT     N3    473    -0.660000    14.0070   ; qtot -14.600
   474        CN2     18      CYT     C4    474     0.650000    12.0110   ; qtot -13.950
   475        NN1     18      CYT     N4    475    -0.750000    14.0070   ; qtot -14.700
   476        HN1     18      CYT    H41    476     0.370000     1.0080   ; qtot -14.330
   477        HN1     18      CYT    H42    477     0.330000     1.0080   ; qtot -14.000
   478       CN7B     18      CYT    C2'    478     0.140000    12.0110   ; qtot -13.860
   479        HN7     18      CYT   H2''    479     0.090000     1.0080   ; qtot -13.770
   480        ON5     18      CYT    O2'    480    -0.660000    15.9994   ; qtot -14.430
   481        HN5     18      CYT    H2'    481     0.430000     1.0080   ; qtot -14.000
   482        CN7     18      CYT    C3'    482     0.010000    12.0110   ; qtot -13.990
   483        HN7     18      CYT    H3'    483     0.090000     1.0080   ; qtot -13.900
   484        ON2     18      CYT    O3'    484    -0.570000    15.9994   ; qtot -14.470
   485          P     19      CYT      P    485     1.500000    30.9740   ; qtot -12.970
   486        ON3     19      CYT    O1P    486    -0.780000    15.9994   ; qtot -13.750
   487        ON3     19      CYT    O2P    487    -0.780000    15.9994   ; qtot -14.530
   488        ON2     19      CYT    O5'    488    -0.570000    15.9994   ; qtot -15.100
   489       CN8B     19      CYT    C5'    489    -0.080000    12.0110   ; qtot -15.180
   490        HN8     19      CYT    H5'    490     0.090000     1.0080   ; qtot -15.090
   491        HN8     19      CYT   H5''    491     0.090000     1.0080   ; qtot -15.000
   492        CN7     19      CYT    C4'    492     0.160000    12.0110   ; qtot -14.840
   493        HN7     19      CYT    H4'    493     0.090000     1.0080   ; qtot -14.750
   494       ON6B     19      CYT    O4'    494    -0.500000    15.9994   ; qtot -15.250
   495       CN7B     19      CYT    C1'    495     0.160000    12.0110   ; qtot -15.090
   496        HN7     19      CYT    H1'    496     0.090000     1.0080   ; qtot -15.000
   497        NN2     19      CYT     N1    497    -0.130000    14.0070   ; qtot -15.130
   498        CN3     19      CYT     C6    498     0.050000    12.0110   ; qtot -15.080
   499        HN3     19      CYT     H6    499     0.170000     1.0080   ; qtot -14.910
   500        CN3     19      CYT     C5    500    -0.130000    12.0110   ; qtot -15.040
   501        HN3     19      CYT     H5    501     0.070000     1.0080   ; qtot -14.970
   502        CN1     19      CYT     C2    502     0.520000    12.0110   ; qtot -14.450
   503       ON1C     19      CYT     O2    503    -0.490000    15.9994   ; qtot -14.940
   504        NN3     19      CYT     N3    504    -0.660000    14.0070   ; qtot -15.600
   505        CN2     19      CYT     C4    505     0.650000    12.0110   ; qtot -14.950
   506        NN1     19      CYT     N4    506    -0.750000    14.0070   ; qtot -15.700
   507        HN1     19      CYT    H41    507     0.370000     1.0080   ; qtot -15.330
   508        HN1     19      CYT    H42    508     0.330000     1.0080   ; qtot -15.000
   509       CN7B     19      CYT    C2'    509     0.140000    12.0110   ; qtot -14.860
   510        HN7     19      CYT   H2''    510     0.090000     1.0080   ; qtot -14.770
   511        ON5     19      CYT    O2'    511    -0.660000    15.9994   ; qtot -15.430
   512        HN5     19      CYT    H2'    512     0.430000     1.0080   ; qtot -15.000
   513        CN7     19      CYT    C3'    513     0.010000    12.0110   ; qtot -14.990
   514        HN7     19      CYT    H3'    514     0.090000     1.0080   ; qtot -14.900
   515        ON2     19      CYT    O3'    515    -0.570000    15.9994   ; qtot -15.470
   516          P     20      URA      P    516     1.500000    30.9740   ; qtot -13.970
   517        ON3     20      URA    O1P    517    -0.780000    15.9994   ; qtot -14.750
   518        ON3     20      URA    O2P    518    -0.780000    15.9994   ; qtot -15.530
   519        ON2     20      URA    O5'    519    -0.570000    15.9994   ; qtot -16.100
   520       CN8B     20      URA    C5'    520    -0.080000    12.0110   ; qtot -16.180
   521        HN8     20      URA    H5'    521     0.090000     1.0080   ; qtot -16.090
   522        HN8     20      URA   H5''    522     0.090000     1.0080   ; qtot -16.000
   523        CN7     20      URA    C4'    523     0.160000    12.0110   ; qtot -15.840
   524        HN7     20      URA    H4'    524     0.090000     1.0080   ; qtot -15.750
   525       ON6B     20      URA    O4'    525    -0.500000    15.9994   ; qtot -16.250
   526       CN7B     20      URA    C1'    526     0.160000    12.0110   ; qtot -16.090
   527        HN7     20      URA    H1'    527     0.090000     1.0080   ; qtot -16.000
   528       NN2B     20      URA     N1    528    -0.340000    14.0070   ; qtot -16.340
   529        CN3     20      URA     C6    529     0.200000    12.0110   ; qtot -16.140
   530        HN3     20      URA     H6    530     0.140000     1.0080   ; qtot -16.000
   531       CN1T     20      URA     C2    531     0.550000    12.0110   ; qtot -15.450
   532        ON1     20      URA     O2    532    -0.450000    15.9994   ; qtot -15.900
   533       NN2U     20      URA     N3    533    -0.460000    14.0070   ; qtot -16.360
   534        HN2     20      URA     H3    534     0.360000     1.0080   ; qtot -16.000
   535        CN1     20      URA     C4    535     0.530000    12.0110   ; qtot -15.470
   536        ON1     20      URA     O4    536    -0.480000    15.9994   ; qtot -15.950
   537        CN3     20      URA     C5    537    -0.150000    12.0110   ; qtot -16.100
   538        HN3     20      URA     H5    538     0.100000     1.0080   ; qtot -16.000
   539       CN7B     20      URA    C2'    539     0.140000    12.0110   ; qtot -15.860
   540        HN7     20      URA   H2''    540     0.090000     1.0080   ; qtot -15.770
   541        ON5     20      URA    O2'    541    -0.660000    15.9994   ; qtot -16.430
   542        HN5     20      URA    H2'    542     0.430000     1.0080   ; qtot -16.000
   543        CN7     20      URA    C3'    543     0.010000    12.0110   ; qtot -15.990
   544        HN7     20      URA    H3'    544     0.090000     1.0080   ; qtot -15.900
   545        ON2     20      URA    O3'    545    -0.570000    15.9994   ; qtot -16.470
   546          P     21      CYT      P    546     1.500000    30.9740   ; qtot -14.970
   547        ON3     21      CYT    O1P    547    -0.780000    15.9994   ; qtot -15.750
   548        ON3     21      CYT    O2P    548    -0.780000    15.9994   ; qtot -16.530
   549        ON2     21      CYT    O5'    549    -0.570000    15.9994   ; qtot -17.100
   550       CN8B     21      CYT    C5'    550    -0.080000    12.0110   ; qtot -17.180
   551        HN8     21      CYT    H5'    551     0.090000     1.0080   ; qtot -17.090
   552        HN8     21      CYT   H5''    552     0.090000     1.0080   ; qtot -17.000
   553        CN7     21      CYT    C4'    553     0.160000    12.0110   ; qtot -16.840
   554        HN7     21      CYT    H4'    554     0.090000     1.0080   ; qtot -16.750
   555       ON6B     21      CYT    O4'    555    -0.500000    15.9994   ; qtot -17.250
   556       CN7B     21      CYT    C1'    556     0.160000    12.0110   ; qtot -17.090
   557        HN7     21      CYT    H1'    557     0.090000     1.0080   ; qtot -17.000
   558        NN2     21      CYT     N1    558    -0.130000    14.0070   ; qtot -17.130
   559        CN3     21      CYT     C6    559     0.050000    12.0110   ; qtot -17.080
   560        HN3     21      CYT     H6    560     0.170000     1.0080   ; qtot -16.910
   561        CN3     21      CYT     C5    561    -0.130000    12.0110   ; qtot -17.040
   562        HN3     21      CYT     H5    562     0.070000     1.0080   ; qtot -16.970
   563        CN1     21      CYT     C2    563     0.520000    12.0110   ; qtot -16.450
   564       ON1C     21      CYT     O2    564    -0.490000    15.9994   ; qtot -16.940
   565        NN3     21      CYT     N3    565    -0.660000    14.0070   ; qtot -17.600
   566        CN2     21      CYT     C4    566     0.650000    12.0110   ; qtot -16.950
   567        NN1     21      CYT     N4    567    -0.750000    14.0070   ; qtot -17.700
   568        HN1     21      CYT    H41    568     0.370000     1.0080   ; qtot -17.330
   569        HN1     21      CYT    H42    569     0.330000     1.0080   ; qtot -17.000
   570       CN7B     21      CYT    C2'    570     0.140000    12.0110   ; qtot -16.860
   571        HN7     21      CYT   H2''    571     0.090000     1.0080   ; qtot -16.770
   572        ON5     21      CYT    O2'    572    -0.660000    15.9994   ; qtot -17.430
   573        HN5     21      CYT    H2'    573     0.430000     1.0080   ; qtot -17.000
   574        CN7     21      CYT    C3'    574     0.010000    12.0110   ; qtot -16.990
   575        HN7     21      CYT    H3'    575     0.090000     1.0080   ; qtot -16.900
   576        ON2     21      CYT    O3'    576    -0.570000    15.9994   ; qtot -17.470
   577          P     22      CYT      P    577     1.500000    30.9740   ; qtot -15.970
   578        ON3     22      CYT    O1P    578    -0.780000    15.9994   ; qtot -16.750
   579        ON3     22      CYT    O2P    579    -0.780000    15.9994   ; qtot -17.530
   580        ON2     22      CYT    O5'    580    -0.570000    15.9994   ; qtot -18.100
   581       CN8B     22      CYT    C5'    581    -0.080000    12.0110   ; qtot -18.180
   582        HN8     22      CYT    H5'    582     0.090000     1.0080   ; qtot -18.090
   583        HN8     22      CYT   H5''    583     0.090000     1.0080   ; qtot -18.000
   584        CN7     22      CYT    C4'    584     0.160000    12.0110   ; qtot -17.840
   585        HN7     22      CYT    H4'    585     0.090000     1.0080   ; qtot -17.750
   586       ON6B     22      CYT    O4'    586    -0.500000    15.9994   ; qtot -18.250
   587       CN7B     22      CYT    C1'    587     0.160000    12.0110   ; qtot -18.090
   588        HN7     22      CYT    H1'    588     0.090000     1.0080   ; qtot -18.000
   589        NN2     22      CYT     N1    589    -0.130000    14.0070   ; qtot -18.130
   590        CN3     22      CYT     C6    590     0.050000    12.0110   ; qtot -18.080
   591        HN3     22      CYT     H6    591     0.170000     1.0080   ; qtot -17.910
   592        CN3     22      CYT     C5    592    -0.130000    12.0110   ; qtot -18.040
   593        HN3     22      CYT     H5    593     0.070000     1.0080   ; qtot -17.970
   594        CN1     22      CYT     C2    594     0.520000    12.0110   ; qtot -17.450
   595       ON1C     22      CYT     O2    595    -0.490000    15.9994   ; qtot -17.940
   596        NN3     22      CYT     N3    596    -0.660000    14.0070   ; qtot -18.600
   597        CN2     22      CYT     C4    597     0.650000    12.0110   ; qtot -17.950
   598        NN1     22      CYT     N4    598    -0.750000    14.0070   ; qtot -18.700
   599        HN1     22      CYT    H41    599     0.370000     1.0080   ; qtot -18.330
   600        HN1     22      CYT    H42    600     0.330000     1.0080   ; qtot -18.000
   601       CN7B     22      CYT    C2'    601     0.140000    12.0110   ; qtot -17.860
   602        HN7     22      CYT   H2''    602     0.090000     1.0080   ; qtot -17.770
   603        ON5     22      CYT    O2'    603    -0.660000    15.9994   ; qtot -18.430
   604        HN5     22      CYT    H2'    604     0.430000     1.0080   ; qtot -18.000
   605        CN7     22      CYT    C3'    605     0.010000    12.0110   ; qtot -17.990
   606        HN7     22      CYT    H3'    606     0.090000     1.0080   ; qtot -17.900
   607        ON2     22      CYT    O3'    607    -0.570000    15.9994   ; qtot -18.470
   608          P     23      ADE      P    608     1.500000    30.9740   ; qtot -16.970
   609        ON3     23      ADE    O1P    609    -0.780000    15.9994   ; qtot -17.750
   610        ON3     23      ADE    O2P    610    -0.780000    15.9994   ; qtot -18.530
   611        ON2     23      ADE    O5'    611    -0.570000    15.9994   ; qtot -19.100
   612       CN8B     23      ADE    C5'    612    -0.080000    12.0110   ; qtot -19.180
   613        HN8     23      ADE    H5'    613     0.090000     1.0080   ; qtot -19.090
   614        HN8     23      ADE   H5''    614     0.090000     1.0080   ; qtot -19.000
   615        CN7     23      ADE    C4'    615     0.160000    12.0110   ; qtot -18.840
   616        HN7     23      ADE    H4'    616     0.090000     1.0080   ; qtot -18.750
   617       ON6B     23      ADE    O4'    617    -0.500000    15.9994   ; qtot -19.250
   618       CN7B     23      ADE    C1'    618     0.160000    12.0110   ; qtot -19.090
   619        HN7     23      ADE    H1'    619     0.090000     1.0080   ; qtot -19.000
   620        NN2     23      ADE     N9    620    -0.050000    14.0070   ; qtot -19.050
   621        CN5     23      ADE     C5    621     0.280000    12.0110   ; qtot -18.770
   622        NN4     23      ADE     N7    622    -0.710000    14.0070   ; qtot -19.480
   623        CN4     23      ADE     C8    623     0.340000    12.0110   ; qtot -19.140
   624        HN3     23      ADE     H8    624     0.120000     1.0080   ; qtot -19.020
   625       NN3A     23      ADE     N1    625    -0.740000    14.0070   ; qtot -19.760
   626        CN4     23      ADE     C2    626     0.500000    12.0110   ; qtot -19.260
   627        HN3     23      ADE     H2    627     0.130000     1.0080   ; qtot -19.130
   628       NN3A     23      ADE     N3    628    -0.750000    14.0070   ; qtot -19.880
   629        CN5     23      ADE     C4    629     0.430000    12.0110   ; qtot -19.450
   630        CN2     23      ADE     C6    630     0.460000    12.0110   ; qtot -18.990
   631        NN1     23      ADE     N6    631    -0.770000    14.0070   ; qtot -19.760
   632        HN1     23      ADE    H61    632     0.380000     1.0080   ; qtot -19.380
   633        HN1     23      ADE    H62    633     0.380000     1.0080   ; qtot -19.000
   634       CN7B     23      ADE    C2'    634     0.140000    12.0110   ; qtot -18.860
   635        HN7     23      ADE   H2''    635     0.090000     1.0080   ; qtot -18.770
   636        ON5     23      ADE    O2'    636    -0.660000    15.9994   ; qtot -19.430
   637        HN5     23      ADE    H2'    637     0.430000     1.0080   ; qtot -19.000
   638        CN7     23      ADE    C3'    638     0.010000    12.0110   ; qtot -18.990
   639        HN7     23      ADE    H3'    639     0.090000     1.0080   ; qtot -18.900
   640        ON2     23      ADE    O3'    640    -0.570000    15.9994   ; qtot -19.470
   641          P     24      URA      P    641     1.500000    30.9740   ; qtot -17.970
   642        ON3     24      URA    O1P    642    -0.780000    15.9994   ; qtot -18.750
   643        ON3     24      URA    O2P    643    -0.780000    15.9994   ; qtot -19.530
   644        ON2     24      URA    O5'    644    -0.570000    15.9994   ; qtot -20.100
   645       CN8B     24      URA    C5'    645    -0.080000    12.0110   ; qtot -20.180
   646        HN8     24      URA    H5'    646     0.090000     1.0080   ; qtot -20.090
   647        HN8     24      URA   H5''    647     0.090000     1.0080   ; qtot -20.000
   648        CN7     24      URA    C4'    648     0.160000    12.0110   ; qtot -19.840
   649        HN7     24      URA    H4'    649     0.090000     1.0080   ; qtot -19.750
   650       ON6B     24      URA    O4'    650    -0.500000    15.9994   ; qtot -20.250
   651       CN7B     24      URA    C1'    651     0.160000    12.0110   ; qtot -20.090
   652        HN7     24      URA    H1'    652     0.090000     1.0080   ; qtot -20.000
   653       NN2B     24      URA     N1    653    -0.340000    14.0070   ; qtot -20.340
   654        CN3     24      URA     C6    654     0.200000    12.0110   ; qtot -20.140
   655        HN3     24      URA     H6    655     0.140000     1.0080   ; qtot -20.000
   656       CN1T     24      URA     C2    656     0.550000    12.0110   ; qtot -19.450
   657        ON1     24      URA     O2    657    -0.450000    15.9994   ; qtot -19.900
   658       NN2U     24      URA     N3    658    -0.460000    14.0070   ; qtot -20.360
   659        HN2     24      URA     H3    659     0.360000     1.0080   ; qtot -20.000
   660        CN1     24      URA     C4    660     0.530000    12.0110   ; qtot -19.470
   661        ON1     24      URA     O4    661    -0.480000    15.9994   ; qtot -19.950
   662        CN3     24      URA     C5    662    -0.150000    12.0110   ; qtot -20.100
   663        HN3     24      URA     H5    663     0.100000     1.0080   ; qtot -20.000
   664       CN7B     24      URA    C2'    664     0.140000    12.0110   ; qtot -19.860
   665        HN7     24      URA   H2''    665     0.090000     1.0080   ; qtot -19.770
   666        ON5     24      URA    O2'    666    -0.660000    15.9994   ; qtot -20.430
   667        HN5     24      URA    H2'    667     0.430000     1.0080   ; qtot -20.000
   668        CN7     24      URA    C3'    668     0.010000    12.0110   ; qtot -19.990
   669        HN7     24      URA    H3'    669     0.090000     1.0080   ; qtot -19.900
   670        ON2     24      URA    O3'    670    -0.570000    15.9994   ; qtot -20.470
   671          P     25      URA      P    671     1.500000    30.9740   ; qtot -18.970
   672        ON3     25      URA    O1P    672    -0.780000    15.9994   ; qtot -19.750
   673        ON3     25      URA    O2P    673    -0.780000    15.9994   ; qtot -20.530
   674        ON2     25      URA    O5'    674    -0.570000    15.9994   ; qtot -21.100
   675       CN8B     25      URA    C5'    675    -0.080000    12.0110   ; qtot -21.180
   676        HN8     25      URA    H5'    676     0.090000     1.0080   ; qtot -21.090
   677        HN8     25      URA   H5''    677     0.090000     1.0080   ; qtot -21.000
   678        CN7     25      URA    C4'    678     0.160000    12.0110   ; qtot -20.840
   679        HN7     25      URA    H4'    679     0.090000     1.0080   ; qtot -20.750
   680       ON6B     25      URA    O4'    680    -0.500000    15.9994   ; qtot -21.250
   681       CN7B     25      URA    C1'    681     0.160000    12.0110   ; qtot -21.090
   682        HN7     25      URA    H1'    682     0.090000     1.0080   ; qtot -21.000
   683       NN2B     25      URA     N1    683    -0.340000    14.0070   ; qtot -21.340
   684        CN3     25      URA     C6    684     0.200000    12.0110   ; qtot -21.140
   685        HN3     25      URA     H6    685     0.140000     1.0080   ; qtot -21.000
   686       CN1T     25      URA     C2    686     0.550000    12.0110   ; qtot -20.450
   687        ON1     25      URA     O2    687    -0.450000    15.9994   ; qtot -20.900
   688       NN2U     25      URA     N3    688    -0.460000    14.0070   ; qtot -21.360
   689        HN2     25      URA     H3    689     0.360000     1.0080   ; qtot -21.000
   690        CN1     25      URA     C4    690     0.530000    12.0110   ; qtot -20.470
   691        ON1     25      URA     O4    691    -0.480000    15.9994   ; qtot -20.950
   692        CN3     25      URA     C5    692    -0.150000    12.0110   ; qtot -21.100
   693        HN3     25      URA     H5    693     0.100000     1.0080   ; qtot -21.000
   694       CN7B     25      URA    C2'    694     0.140000    12.0110   ; qtot -20.860
   695        HN7     25      URA   H2''    695     0.090000     1.0080   ; qtot -20.770
   696        ON5     25      URA    O2'    696    -0.660000    15.9994   ; qtot -21.430
   697        HN5     25      URA    H2'    697     0.430000     1.0080   ; qtot -21.000
   698        CN7     25      URA    C3'    698     0.010000    12.0110   ; qtot -20.990
   699        HN7     25      URA    H3'    699     0.090000     1.0080   ; qtot -20.900
   700        ON2     25      URA    O3'    700    -0.570000    15.9994   ; qtot -21.470
   701          P     26      GUA      P    701     1.500000    30.9740   ; qtot -19.970
   702        ON3     26      GUA    O1P    702    -0.780000    15.9994   ; qtot -20.750
   703        ON3     26      GUA    O2P    703    -0.780000    15.9994   ; qtot -21.530
   704        ON2     26      GUA    O5'    704    -0.570000    15.9994   ; qtot -22.100
   705       CN8B     26      GUA    C5'    705    -0.080000    12.0110   ; qtot -22.180
   706        HN8     26      GUA    H5'    706     0.090000     1.0080   ; qtot -22.090
   707        HN8     26      GUA   H5''    707     0.090000     1.0080   ; qtot -22.000
   708        CN7     26      GUA    C4'    708     0.160000    12.0110   ; qtot -21.840
   709        HN7     26      GUA    H4'    709     0.090000     1.0080   ; qtot -21.750
   710       ON6B     26      GUA    O4'    710    -0.500000    15.9994   ; qtot -22.250
   711       CN7B     26      GUA    C1'    711     0.160000    12.0110   ; qtot -22.090
   712        HN7     26      GUA    H1'    712     0.090000     1.0080   ; qtot -22.000
   713       NN2B     26      GUA     N9    713    -0.020000    14.0070   ; qtot -22.020
   714        CN5     26      GUA     C4    714     0.260000    12.0110   ; qtot -21.760
   715        NN1     26      GUA     N2    715    -0.680000    14.0070   ; qtot -22.440
   716        HN1     26      GUA    H21    716     0.320000     1.0080   ; qtot -22.120
   717        HN1     26      GUA    H22    717     0.350000     1.0080   ; qtot -21.770
   718       NN3G     26      GUA     N3    718    -0.740000    14.0070   ; qtot -22.510
   719        CN2     26      GUA     C2    719     0.750000    12.0110   ; qtot -21.760
   720       NN2G     26      GUA     N1    720    -0.340000    14.0070   ; qtot -22.100
   721        HN2     26      GUA     H1    721     0.260000     1.0080   ; qtot -21.840
   722        CN1     26      GUA     C6    722     0.540000    12.0110   ; qtot -21.300
   723        ON1     26      GUA     O6    723    -0.510000    15.9994   ; qtot -21.810
   724       CN5G     26      GUA     C5    724     0.000000    12.0110   ; qtot -21.810
   725        NN4     26      GUA     N7    725    -0.600000    14.0070   ; qtot -22.410
   726        CN4     26      GUA     C8    726     0.250000    12.0110   ; qtot -22.160
   727        HN3     26      GUA     H8    727     0.160000     1.0080   ; qtot -22.000
   728       CN7B     26      GUA    C2'    728     0.140000    12.0110   ; qtot -21.860
   729        HN7     26      GUA   H2''    729     0.090000     1.0080   ; qtot -21.770
   730        ON5     26      GUA    O2'    730    -0.660000    15.9994   ; qtot -22.430
   731        HN5     26      GUA    H2'    731     0.430000     1.0080   ; qtot -22.000
   732        CN7     26      GUA    C3'    732     0.010000    12.0110   ; qtot -21.990
   733        HN7     26      GUA    H3'    733     0.090000     1.0080   ; qtot -21.900
   734        ON2     26      GUA    O3'    734    -0.570000    15.9994   ; qtot -22.470
   735          P     27      CYT      P    735     1.500000    30.9740   ; qtot -20.970
   736        ON3     27      CYT    O1P    736    -0.780000    15.9994   ; qtot -21.750
   737        ON3     27      CYT    O2P    737    -0.780000    15.9994   ; qtot -22.530
   738        ON2     27      CYT    O5'    738    -0.570000    15.9994   ; qtot -23.100
   739       CN8B     27      CYT    C5'    739    -0.080000    12.0110   ; qtot -23.180
   740        HN8     27      CYT    H5'    740     0.090000     1.0080   ; qtot -23.090
   741        HN8     27      CYT   H5''    741     0.090000     1.0080   ; qtot -23.000
   742        CN7     27      CYT    C4'    742     0.160000    12.0110   ; qtot -22.840
   743        HN7     27      CYT    H4'    743     0.090000     1.0080   ; qtot -22.750
   744       ON6B     27      CYT    O4'    744    -0.500000    15.9994   ; qtot -23.250
   745       CN7B     27      CYT    C1'    745     0.160000    12.0110   ; qtot -23.090
   746        HN7     27      CYT    H1'    746     0.090000     1.0080   ; qtot -23.000
   747        NN2     27      CYT     N1    747    -0.130000    14.0070   ; qtot -23.130
   748        CN3     27      CYT     C6    748     0.050000    12.0110   ; qtot -23.080
   749        HN3     27      CYT     H6    749     0.170000     1.0080   ; qtot -22.910
   750        CN3     27      CYT     C5    750    -0.130000    12.0110   ; qtot -23.040
   751        HN3     27      CYT     H5    751     0.070000     1.0080   ; qtot -22.970
   752        CN1     27      CYT     C2    752     0.520000    12.0110   ; qtot -22.450
   753       ON1C     27      CYT     O2    753    -0.490000    15.9994   ; qtot -22.940
   754        NN3     27      CYT     N3    754    -0.660000    14.0070   ; qtot -23.600
   755        CN2     27      CYT     C4    755     0.650000    12.0110   ; qtot -22.950
   756        NN1     27      CYT     N4    756    -0.750000    14.0070   ; qtot -23.700
   757        HN1     27      CYT    H41    757     0.370000     1.0080   ; qtot -23.330
   758        HN1     27      CYT    H42    758     0.330000     1.0080   ; qtot -23.000
   759       CN7B     27      CYT    C2'    759     0.140000    12.0110   ; qtot -22.860
   760        HN7     27      CYT   H2''    760     0.090000     1.0080   ; qtot -22.770
   761        ON5     27      CYT    O2'    761    -0.660000    15.9994   ; qtot -23.430
   762        HN5     27      CYT    H2'    762     0.430000     1.0080   ; qtot -23.000
   763        CN7     27      CYT    C3'    763     0.010000    12.0110   ; qtot -22.990
   764        HN7     27      CYT    H3'    764     0.090000     1.0080   ; qtot -22.900
   765        ON2     27      CYT    O3'    765    -0.570000    15.9994   ; qtot -23.470
   766          P     28      ADE      P    766     1.500000    30.9740   ; qtot -21.970
   767        ON3     28      ADE    O1P    767    -0.780000    15.9994   ; qtot -22.750
   768        ON3     28      ADE    O2P    768    -0.780000    15.9994   ; qtot -23.530
   769        ON2     28      ADE    O5'    769    -0.570000    15.9994   ; qtot -24.100
   770       CN8B     28      ADE    C5'    770    -0.080000    12.0110   ; qtot -24.180
   771        HN8     28      ADE    H5'    771     0.090000     1.0080   ; qtot -24.090
   772        HN8     28      ADE   H5''    772     0.090000     1.0080   ; qtot -24.000
   773        CN7     28      ADE    C4'    773     0.160000    12.0110   ; qtot -23.840
   774        HN7     28      ADE    H4'    774     0.090000     1.0080   ; qtot -23.750
   775       ON6B     28      ADE    O4'    775    -0.500000    15.9994   ; qtot -24.250
   776       CN7B     28      ADE    C1'    776     0.160000    12.0110   ; qtot -24.090
   777        HN7     28      ADE    H1'    777     0.090000     1.0080   ; qtot -24.000
   778        NN2     28      ADE     N9    778    -0.050000    14.0070   ; qtot -24.050
   779        CN5     28      ADE     C5    779     0.280000    12.0110   ; qtot -23.770
   780        NN4     28      ADE     N7    780    -0.710000    14.0070   ; qtot -24.480
   781        CN4     28      ADE     C8    781     0.340000    12.0110   ; qtot -24.140
   782        HN3     28      ADE     H8    782     0.120000     1.0080   ; qtot -24.020
   783       NN3A     28      ADE     N1    783    -0.740000    14.0070   ; qtot -24.760
   784        CN4     28      ADE     C2    784     0.500000    12.0110   ; qtot -24.260
   785        HN3     28      ADE     H2    785     0.130000     1.0080   ; qtot -24.130
   786       NN3A     28      ADE     N3    786    -0.750000    14.0070   ; qtot -24.880
   787        CN5     28      ADE     C4    787     0.430000    12.0110   ; qtot -24.450
   788        CN2     28      ADE     C6    788     0.460000    12.0110   ; qtot -23.990
   789        NN1     28      ADE     N6    789    -0.770000    14.0070   ; qtot -24.760
   790        HN1     28      ADE    H61    790     0.380000     1.0080   ; qtot -24.380
   791        HN1     28      ADE    H62    791     0.380000     1.0080   ; qtot -24.000
   792       CN7B     28      ADE    C2'    792     0.140000    12.0110   ; qtot -23.860
   793        HN7     28      ADE   H2''    793     0.090000     1.0080   ; qtot -23.770
   794        ON5     28      ADE    O2'    794    -0.660000    15.9994   ; qtot -24.430
   795        HN5     28      ADE    H2'    795     0.430000     1.0080   ; qtot -24.000
   796        CN7     28      ADE    C3'    796     0.010000    12.0110   ; qtot -23.990
   797        HN7     28      ADE    H3'    797     0.090000     1.0080   ; qtot -23.900
   798        ON2     28      ADE    O3'    798    -0.570000    15.9994   ; qtot -24.470
   799          P     29      CYT      P    799     1.500000    30.9740   ; qtot -22.970
   800        ON3     29      CYT    O1P    800    -0.780000    15.9994   ; qtot -23.750
   801        ON3     29      CYT    O2P    801    -0.780000    15.9994   ; qtot -24.530
   802        ON2     29      CYT    O5'    802    -0.570000    15.9994   ; qtot -25.100
   803       CN8B     29      CYT    C5'    803    -0.080000    12.0110   ; qtot -25.180
   804        HN8     29      CYT    H5'    804     0.090000     1.0080   ; qtot -25.090
   805        HN8     29      CYT   H5''    805     0.090000     1.0080   ; qtot -25.000
   806        CN7     29      CYT    C4'    806     0.160000    12.0110   ; qtot -24.840
   807        HN7     29      CYT    H4'    807     0.090000     1.0080   ; qtot -24.750
   808       ON6B     29      CYT    O4'    808    -0.500000    15.9994   ; qtot -25.250
   809       CN7B     29      CYT    C1'    809     0.160000    12.0110   ; qtot -25.090
   810        HN7     29      CYT    H1'    810     0.090000     1.0080   ; qtot -25.000
   811        NN2     29      CYT     N1    811    -0.130000    14.0070   ; qtot -25.130
   812        CN3     29      CYT     C6    812     0.050000    12.0110   ; qtot -25.080
   813        HN3     29      CYT     H6    813     0.170000     1.0080   ; qtot -24.910
   814        CN3     29      CYT     C5    814    -0.130000    12.0110   ; qtot -25.040
   815        HN3     29      CYT     H5    815     0.070000     1.0080   ; qtot -24.970
   816        CN1     29      CYT     C2    816     0.520000    12.0110   ; qtot -24.450
   817       ON1C     29      CYT     O2    817    -0.490000    15.9994   ; qtot -24.940
   818        NN3     29      CYT     N3    818    -0.660000    14.0070   ; qtot -25.600
   819        CN2     29      CYT     C4    819     0.650000    12.0110   ; qtot -24.950
   820        NN1     29      CYT     N4    820    -0.750000    14.0070   ; qtot -25.700
   821        HN1     29      CYT    H41    821     0.370000     1.0080   ; qtot -25.330
   822        HN1     29      CYT    H42    822     0.330000     1.0080   ; qtot -25.000
   823       CN7B     29      CYT    C2'    823     0.140000    12.0110   ; qtot -24.860
   824        HN7     29      CYT   H2''    824     0.090000     1.0080   ; qtot -24.770
   825        ON5     29      CYT    O2'    825    -0.660000    15.9994   ; qtot -25.430
   826        HN5     29      CYT    H2'    826     0.430000     1.0080   ; qtot -25.000
   827        CN7     29      CYT    C3'    827     0.010000    12.0110   ; qtot -24.990
   828        HN7     29      CYT    H3'    828     0.090000     1.0080   ; qtot -24.900
   829        ON2     29      CYT    O3'    829    -0.570000    15.9994   ; qtot -25.470
   830          P     30      URA      P    830     1.500000    30.9740   ; qtot -23.970
   831        ON3     30      URA    O1P    831    -0.780000    15.9994   ; qtot -24.750
   832        ON3     30      URA    O2P    832    -0.780000    15.9994   ; qtot -25.530
   833        ON2     30      URA    O5'    833    -0.570000    15.9994   ; qtot -26.100
   834       CN8B     30      URA    C5'    834    -0.080000    12.0110   ; qtot -26.180
   835        HN8     30      URA    H5'    835     0.090000     1.0080   ; qtot -26.090
   836        HN8     30      URA   H5''    836     0.090000     1.0080   ; qtot -26.000
   837        CN7     30      URA    C4'    837     0.160000    12.0110   ; qtot -25.840
   838        HN7     30      URA    H4'    838     0.090000     1.0080   ; qtot -25.750
   839       ON6B     30      URA    O4'    839    -0.500000    15.9994   ; qtot -26.250
   840       CN7B     30      URA    C1'    840     0.160000    12.0110   ; qtot -26.090
   841        HN7     30      URA    H1'    841     0.090000     1.0080   ; qtot -26.000
   842       NN2B     30      URA     N1    842    -0.340000    14.0070   ; qtot -26.340
   843        CN3     30      URA     C6    843     0.200000    12.0110   ; qtot -26.140
   844        HN3     30      URA     H6    844     0.140000     1.0080   ; qtot -26.000
   845       CN1T     30      URA     C2    845     0.550000    12.0110   ; qtot -25.450
   846        ON1     30      URA     O2    846    -0.450000    15.9994   ; qtot -25.900
   847       NN2U     30      URA     N3    847    -0.460000    14.0070   ; qtot -26.360
   848        HN2     30      URA     H3    848     0.360000     1.0080   ; qtot -26.000
   849        CN1     30      URA     C4    849     0.530000    12.0110   ; qtot -25.470
   850        ON1     30      URA     O4    850    -0.480000    15.9994   ; qtot -25.950
   851        CN3     30      URA     C5    851    -0.150000    12.0110   ; qtot -26.100
   852        HN3     30      URA     H5    852     0.100000     1.0080   ; qtot -26.000
   853       CN7B     30      URA    C2'    853     0.140000    12.0110   ; qtot -25.860
   854        HN7     30      URA   H2''    854     0.090000     1.0080   ; qtot -25.770
   855        ON5     30      URA    O2'    855    -0.660000    15.9994   ; qtot -26.430
   856        HN5     30      URA    H2'    856     0.430000     1.0080   ; qtot -26.000
   857        CN7     30      URA    C3'    857     0.010000    12.0110   ; qtot -25.990
   858        HN7     30      URA    H3'    858     0.090000     1.0080   ; qtot -25.900
   859        ON2     30      URA    O3'    859    -0.570000    15.9994   ; qtot -26.470
   860          P     31      CYT      P    860     1.500000    30.9740   ; qtot -24.970
   861        ON3     31      CYT    O1P    861    -0.780000    15.9994   ; qtot -25.750
   862        ON3     31      CYT    O2P    862    -0.780000    15.9994   ; qtot -26.530
   863        ON2     31      CYT    O5'    863    -0.570000    15.9994   ; qtot -27.100
   864       CN8B     31      CYT    C5'    864    -0.080000    12.0110   ; qtot -27.180
   865        HN8     31      CYT    H5'    865     0.090000     1.0080   ; qtot -27.090
   866        HN8     31      CYT   H5''    866     0.090000     1.0080   ; qtot -27.000
   867        CN7     31      CYT    C4'    867     0.160000    12.0110   ; qtot -26.840
   868        HN7     31      CYT    H4'    868     0.090000     1.0080   ; qtot -26.750
   869       ON6B     31      CYT    O4'    869    -0.500000    15.9994   ; qtot -27.250
   870       CN7B     31      CYT    C1'    870     0.160000    12.0110   ; qtot -27.090
   871        HN7     31      CYT    H1'    871     0.090000     1.0080   ; qtot -27.000
   872        NN2     31      CYT     N1    872    -0.130000    14.0070   ; qtot -27.130
   873        CN3     31      CYT     C6    873     0.050000    12.0110   ; qtot -27.080
   874        HN3     31      CYT     H6    874     0.170000     1.0080   ; qtot -26.910
   875        CN3     31      CYT     C5    875    -0.130000    12.0110   ; qtot -27.040
   876        HN3     31      CYT     H5    876     0.070000     1.0080   ; qtot -26.970
   877        CN1     31      CYT     C2    877     0.520000    12.0110   ; qtot -26.450
   878       ON1C     31      CYT     O2    878    -0.490000    15.9994   ; qtot -26.940
   879        NN3     31      CYT     N3    879    -0.660000    14.0070   ; qtot -27.600
   880        CN2     31      CYT     C4    880     0.650000    12.0110   ; qtot -26.950
   881        NN1     31      CYT     N4    881    -0.750000    14.0070   ; qtot -27.700
   882        HN1     31      CYT    H41    882     0.370000     1.0080   ; qtot -27.330
   883        HN1     31      CYT    H42    883     0.330000     1.0080   ; qtot -27.000
   884       CN7B     31      CYT    C2'    884     0.140000    12.0110   ; qtot -26.860
   885        HN7     31      CYT   H2''    885     0.090000     1.0080   ; qtot -26.770
   886        ON5     31      CYT    O2'    886    -0.660000    15.9994   ; qtot -27.430
   887        HN5     31      CYT    H2'    887     0.430000     1.0080   ; qtot -27.000
   888        CN7     31      CYT    C3'    888     0.010000    12.0110   ; qtot -26.990
   889        HN7     31      CYT    H3'    889     0.090000     1.0080   ; qtot -26.900
   890        ON2     31      CYT    O3'    890    -0.570000    15.9994   ; qtot -27.470
   891          P     32      CYT      P    891     1.500000    30.9740   ; qtot -25.970
   892        ON3     32      CYT    O1P    892    -0.780000    15.9994   ; qtot -26.750
   893        ON3     32      CYT    O2P    893    -0.780000    15.9994   ; qtot -27.530
   894        ON2     32      CYT    O5'    894    -0.570000    15.9994   ; qtot -28.100
   895       CN8B     32      CYT    C5'    895    -0.080000    12.0110   ; qtot -28.180
   896        HN8     32      CYT    H5'    896     0.090000     1.0080   ; qtot -28.090
   897        HN8     32      CYT   H5''    897     0.090000     1.0080   ; qtot -28.000
   898        CN7     32      CYT    C4'    898     0.160000    12.0110   ; qtot -27.840
   899        HN7     32      CYT    H4'    899     0.090000     1.0080   ; qtot -27.750
   900       ON6B     32      CYT    O4'    900    -0.500000    15.9994   ; qtot -28.250
   901       CN7B     32      CYT    C1'    901     0.160000    12.0110   ; qtot -28.090
   902        HN7     32      CYT    H1'    902     0.090000     1.0080   ; qtot -28.000
   903        NN2     32      CYT     N1    903    -0.130000    14.0070   ; qtot -28.130
   904        CN3     32      CYT     C6    904     0.050000    12.0110   ; qtot -28.080
   905        HN3     32      CYT     H6    905     0.170000     1.0080   ; qtot -27.910
   906        CN3     32      CYT     C5    906    -0.130000    12.0110   ; qtot -28.040
   907        HN3     32      CYT     H5    907     0.070000     1.0080   ; qtot -27.970
   908        CN1     32      CYT     C2    908     0.520000    12.0110   ; qtot -27.450
   909       ON1C     32      CYT     O2    909    -0.490000    15.9994   ; qtot -27.940
   910        NN3     32      CYT     N3    910    -0.660000    14.0070   ; qtot -28.600
   911        CN2     32      CYT     C4    911     0.650000    12.0110   ; qtot -27.950
   912        NN1     32      CYT     N4    912    -0.750000    14.0070   ; qtot -28.700
   913        HN1     32      CYT    H41    913     0.370000     1.0080   ; qtot -28.330
   914        HN1     32      CYT    H42    914     0.330000     1.0080   ; qtot -28.000
   915       CN7B     32      CYT    C2'    915     0.140000    12.0110   ; qtot -27.860
   916        HN7     32      CYT   H2''    916     0.090000     1.0080   ; qtot -27.770
   917        ON5     32      CYT    O2'    917    -0.660000    15.9994   ; qtot -28.430
   918        HN5     32      CYT    H2'    918     0.430000     1.0080   ; qtot -28.000
   919        CN7     32      CYT    C3'    919     0.010000    12.0110   ; qtot -27.990
   920        HN7     32      CYT    H3'    920     0.090000     1.0080   ; qtot -27.900
   921        ON2     32      CYT    O3'    921    -0.570000    15.9994   ; qtot -28.470
   922          P     33      GUA      P    922     1.500000    30.9740   ; qtot -26.970
   923        ON3     33      GUA    O1P    923    -0.780000    15.9994   ; qtot -27.750
   924        ON3     33      GUA    O2P    924    -0.780000    15.9994   ; qtot -28.530
   925        ON2     33      GUA    O5'    925    -0.570000    15.9994   ; qtot -29.100
   926       CN8B     33      GUA    C5'    926    -0.080000    12.0110   ; qtot -29.180
   927        HN8     33      GUA    H5'    927     0.090000     1.0080   ; qtot -29.090
   928        HN8     33      GUA   H5''    928     0.090000     1.0080   ; qtot -29.000
   929        CN7     33      GUA    C4'    929     0.160000    12.0110   ; qtot -28.840
   930        HN7     33      GUA    H4'    930     0.090000     1.0080   ; qtot -28.750
   931       ON6B     33      GUA    O4'    931    -0.500000    15.9994   ; qtot -29.250
   932       CN7B     33      GUA    C1'    932     0.160000    12.0110   ; qtot -29.090
   933        HN7     33      GUA    H1'    933     0.090000     1.0080   ; qtot -29.000
   934       NN2B     33      GUA     N9    934    -0.020000    14.0070   ; qtot -29.020
   935        CN5     33      GUA     C4    935     0.260000    12.0110   ; qtot -28.760
   936        NN1     33      GUA     N2    936    -0.680000    14.0070   ; qtot -29.440
   937        HN1     33      GUA    H21    937     0.320000     1.0080   ; qtot -29.120
   938        HN1     33      GUA    H22    938     0.350000     1.0080   ; qtot -28.770
   939       NN3G     33      GUA     N3    939    -0.740000    14.0070   ; qtot -29.510
   940        CN2     33      GUA     C2    940     0.750000    12.0110   ; qtot -28.760
   941       NN2G     33      GUA     N1    941    -0.340000    14.0070   ; qtot -29.100
   942        HN2     33      GUA     H1    942     0.260000     1.0080   ; qtot -28.840
   943        CN1     33      GUA     C6    943     0.540000    12.0110   ; qtot -28.300
   944        ON1     33      GUA     O6    944    -0.510000    15.9994   ; qtot -28.810
   945       CN5G     33      GUA     C5    945     0.000000    12.0110   ; qtot -28.810
   946        NN4     33      GUA     N7    946    -0.600000    14.0070   ; qtot -29.410
   947        CN4     33      GUA     C8    947     0.250000    12.0110   ; qtot -29.160
   948        HN3     33      GUA     H8    948     0.160000     1.0080   ; qtot -29.000
   949       CN7B     33      GUA    C2'    949     0.140000    12.0110   ; qtot -28.860
   950        HN7     33      GUA   H2''    950     0.090000     1.0080   ; qtot -28.770
   951        ON5     33      GUA    O2'    951    -0.660000    15.9994   ; qtot -29.430
   952        HN5     33      GUA    H2'    952     0.430000     1.0080   ; qtot -29.000
   953        CN7     33      GUA    C3'    953     0.010000    12.0110   ; qtot -28.990
   954        HN7     33      GUA    H3'    954     0.090000     1.0080   ; qtot -28.900
   955        ON2     33      GUA    O3'    955    -0.570000    15.9994   ; qtot -29.470
   956          P     34      GUA      P    956     1.500000    30.9740   ; qtot -27.970
   957        ON3     34      GUA    O1P    957    -0.780000    15.9994   ; qtot -28.750
   958        ON3     34      GUA    O2P    958    -0.780000    15.9994   ; qtot -29.530
   959        ON2     34      GUA    O5'    959    -0.570000    15.9994   ; qtot -30.100
   960       CN8B     34      GUA    C5'    960    -0.080000    12.0110   ; qtot -30.180
   961        HN8     34      GUA    H5'    961     0.090000     1.0080   ; qtot -30.090
   962        HN8     34      GUA   H5''    962     0.090000     1.0080   ; qtot -30.000
   963        CN7     34      GUA    C4'    963     0.160000    12.0110   ; qtot -29.840
   964        HN7     34      GUA    H4'    964     0.090000     1.0080   ; qtot -29.750
   965       ON6B     34      GUA    O4'    965    -0.500000    15.9994   ; qtot -30.250
   966       CN7B     34      GUA    C1'    966     0.160000    12.0110   ; qtot -30.090
   967        HN7     34      GUA    H1'    967     0.090000     1.0080   ; qtot -30.000
   968       NN2B     34      GUA     N9    968    -0.020000    14.0070   ; qtot -30.020
   969        CN5     34      GUA     C4    969     0.260000    12.0110   ; qtot -29.760
   970        NN1     34      GUA     N2    970    -0.680000    14.0070   ; qtot -30.440
   971        HN1     34      GUA    H21    971     0.320000     1.0080   ; qtot -30.120
   972        HN1     34      GUA    H22    972     0.350000     1.0080   ; qtot -29.770
   973       NN3G     34      GUA     N3    973    -0.740000    14.0070   ; qtot -30.510
   974        CN2     34      GUA     C2    974     0.750000    12.0110   ; qtot -29.760
   975       NN2G     34      GUA     N1    975    -0.340000    14.0070   ; qtot -30.100
   976        HN2     34      GUA     H1    976     0.260000     1.0080   ; qtot -29.840
   977        CN1     34      GUA     C6    977     0.540000    12.0110   ; qtot -29.300
   978        ON1     34      GUA     O6    978    -0.510000    15.9994   ; qtot -29.810
   979       CN5G     34      GUA     C5    979     0.000000    12.0110   ; qtot -29.810
   980        NN4     34      GUA     N7    980    -0.600000    14.0070   ; qtot -30.410
   981        CN4     34      GUA     C8    981     0.250000    12.0110   ; qtot -30.160
   982        HN3     34      GUA     H8    982     0.160000     1.0080   ; qtot -30.000
   983       CN7B     34      GUA    C2'    983     0.140000    12.0110   ; qtot -29.860
   984        HN7     34      GUA   H2''    984     0.090000     1.0080   ; qtot -29.770
   985        ON5     34      GUA    O2'    985    -0.660000    15.9994   ; qtot -30.430
   986        HN5     34      GUA    H2'    986     0.430000     1.0080   ; qtot -30.000
   987        CN7     34      GUA    C3'    987     0.010000    12.0110   ; qtot -29.990
   988        HN7     34      GUA    H3'    988     0.090000     1.0080   ; qtot -29.900
   989        ON2     34      GUA    O3'    989    -0.570000    15.9994   ; qtot -30.470
   990          P     35      ADE      P    990     1.500000    30.9740   ; qtot -28.970
   991        ON3     35      ADE    O1P    991    -0.780000    15.9994   ; qtot -29.750
   992        ON3     35      ADE    O2P    992    -0.780000    15.9994   ; qtot -30.530
   993        ON2     35      ADE    O5'    993    -0.570000    15.9994   ; qtot -31.100
   994       CN8B     35      ADE    C5'    994    -0.080000    12.0110   ; qtot -31.180
   995        HN8     35      ADE    H5'    995     0.090000     1.0080   ; qtot -31.090
   996        HN8     35      ADE   H5''    996     0.090000     1.0080   ; qtot -31.000
   997        CN7     35      ADE    C4'    997     0.160000    12.0110   ; qtot -30.840
   998        HN7     35      ADE    H4'    998     0.090000     1.0080   ; qtot -30.750
   999       ON6B     35      ADE    O4'    999    -0.500000    15.9994   ; qtot -31.250
  1000       CN7B     35      ADE    C1'   1000     0.160000    12.0110   ; qtot -31.090
  1001        HN7     35      ADE    H1'   1001     0.090000     1.0080   ; qtot -31.000
  1002        NN2     35      ADE     N9   1002    -0.050000    14.0070   ; qtot -31.050
  1003        CN5     35      ADE     C5   1003     0.280000    12.0110   ; qtot -30.770
  1004        NN4     35      ADE     N7   1004    -0.710000    14.0070   ; qtot -31.480
  1005        CN4     35      ADE     C8   1005     0.340000    12.0110   ; qtot -31.140
  1006        HN3     35      ADE     H8   1006     0.120000     1.0080   ; qtot -31.020
  1007       NN3A     35      ADE     N1   1007    -0.740000    14.0070   ; qtot -31.760
  1008        CN4     35      ADE     C2   1008     0.500000    12.0110   ; qtot -31.260
  1009        HN3     35      ADE     H2   1009     0.130000     1.0080   ; qtot -31.130
  1010       NN3A     35      ADE     N3   1010    -0.750000    14.0070   ; qtot -31.880
  1011        CN5     35      ADE     C4   1011     0.430000    12.0110   ; qtot -31.450
  1012        CN2     35      ADE     C6   1012     0.460000    12.0110   ; qtot -30.990
  1013        NN1     35      ADE     N6   1013    -0.770000    14.0070   ; qtot -31.760
  1014        HN1     35      ADE    H61   1014     0.380000     1.0080   ; qtot -31.380
  1015        HN1     35      ADE    H62   1015     0.380000     1.0080   ; qtot -31.000
  1016       CN7B     35      ADE    C2'   1016     0.140000    12.0110   ; qtot -30.860
  1017        HN7     35      ADE   H2''   1017     0.090000     1.0080   ; qtot -30.770
  1018        ON5     35      ADE    O2'   1018    -0.660000    15.9994   ; qtot -31.430
  1019        HN5     35      ADE    H2'   1019     0.430000     1.0080   ; qtot -31.000
  1020        CN7     35      ADE    C3'   1020     0.010000    12.0110   ; qtot -30.990
  1021        HN7     35      ADE    H3'   1021     0.090000     1.0080   ; qtot -30.900
  1022        ON2     35      ADE    O3'   1022    -0.570000    15.9994   ; qtot -31.470
  1023          P     36      GUA      P   1023     1.500000    30.9740   ; qtot -29.970
  1024        ON3     36      GUA    O1P   1024    -0.780000    15.9994   ; qtot -30.750
  1025        ON3     36      GUA    O2P   1025    -0.780000    15.9994   ; qtot -31.530
  1026        ON2     36      GUA    O5'   1026    -0.570000    15.9994   ; qtot -32.100
  1027       CN8B     36      GUA    C5'   1027    -0.080000    12.0110   ; qtot -32.180
  1028        HN8     36      GUA    H5'   1028     0.090000     1.0080   ; qtot -32.090
  1029        HN8     36      GUA   H5''   1029     0.090000     1.0080   ; qtot -32.000
  1030        CN7     36      GUA    C4'   1030     0.160000    12.0110   ; qtot -31.840
  1031        HN7     36      GUA    H4'   1031     0.090000     1.0080   ; qtot -31.750
  1032       ON6B     36      GUA    O4'   1032    -0.500000    15.9994   ; qtot -32.250
  1033       CN7B     36      GUA    C1'   1033     0.160000    12.0110   ; qtot -32.090
  1034        HN7     36      GUA    H1'   1034     0.090000     1.0080   ; qtot -32.000
  1035       NN2B     36      GUA     N9   1035    -0.020000    14.0070   ; qtot -32.020
  1036        CN5     36      GUA     C4   1036     0.260000    12.0110   ; qtot -31.760
  1037        NN1     36      GUA     N2   1037    -0.680000    14.0070   ; qtot -32.440
  1038        HN1     36      GUA    H21   1038     0.320000     1.0080   ; qtot -32.120
  1039        HN1     36      GUA    H22   1039     0.350000     1.0080   ; qtot -31.770
  1040       NN3G     36      GUA     N3   1040    -0.740000    14.0070   ; qtot -32.510
  1041        CN2     36      GUA     C2   1041     0.750000    12.0110   ; qtot -31.760
  1042       NN2G     36      GUA     N1   1042    -0.340000    14.0070   ; qtot -32.100
  1043        HN2     36      GUA     H1   1043     0.260000     1.0080   ; qtot -31.840
  1044        CN1     36      GUA     C6   1044     0.540000    12.0110   ; qtot -31.300
  1045        ON1     36      GUA     O6   1045    -0.510000    15.9994   ; qtot -31.810
  1046       CN5G     36      GUA     C5   1046     0.000000    12.0110   ; qtot -31.810
  1047        NN4     36      GUA     N7   1047    -0.600000    14.0070   ; qtot -32.410
  1048        CN4     36      GUA     C8   1048     0.250000    12.0110   ; qtot -32.160
  1049        HN3     36      GUA     H8   1049     0.160000     1.0080   ; qtot -32.000
  1050       CN7B     36      GUA    C2'   1050     0.140000    12.0110   ; qtot -31.860
  1051        HN7     36      GUA   H2''   1051     0.090000     1.0080   ; qtot -31.770
  1052        ON5     36      GUA    O2'   1052    -0.660000    15.9994   ; qtot -32.430
  1053        HN5     36      GUA    H2'   1053     0.430000     1.0080   ; qtot -32.000
  1054        CN7     36      GUA    C3'   1054     0.010000    12.0110   ; qtot -31.990
  1055        HN7     36      GUA    H3'   1055     0.090000     1.0080   ; qtot -31.900
  1056        ON2     36      GUA    O3'   1056    -0.570000    15.9994   ; qtot -32.470
  1057          P     37      GUA      P   1057     1.500000    30.9740   ; qtot -30.970
  1058        ON3     37      GUA    O1P   1058    -0.780000    15.9994   ; qtot -31.750
  1059        ON3     37      GUA    O2P   1059    -0.780000    15.9994   ; qtot -32.530
  1060        ON2     37      GUA    O5'   1060    -0.570000    15.9994   ; qtot -33.100
  1061       CN8B     37      GUA    C5'   1061    -0.080000    12.0110   ; qtot -33.180
  1062        HN8     37      GUA    H5'   1062     0.090000     1.0080   ; qtot -33.090
  1063        HN8     37      GUA   H5''   1063     0.090000     1.0080   ; qtot -33.000
  1064        CN7     37      GUA    C4'   1064     0.160000    12.0110   ; qtot -32.840
  1065        HN7     37      GUA    H4'   1065     0.090000     1.0080   ; qtot -32.750
  1066       ON6B     37      GUA    O4'   1066    -0.500000    15.9994   ; qtot -33.250
  1067       CN7B     37      GUA    C1'   1067     0.160000    12.0110   ; qtot -33.090
  1068        HN7     37      GUA    H1'   1068     0.090000     1.0080   ; qtot -33.000
  1069       NN2B     37      GUA     N9   1069    -0.020000    14.0070   ; qtot -33.020
  1070        CN5     37      GUA     C4   1070     0.260000    12.0110   ; qtot -32.760
  1071        NN1     37      GUA     N2   1071    -0.680000    14.0070   ; qtot -33.440
  1072        HN1     37      GUA    H21   1072     0.320000     1.0080   ; qtot -33.120
  1073        HN1     37      GUA    H22   1073     0.350000     1.0080   ; qtot -32.770
  1074       NN3G     37      GUA     N3   1074    -0.740000    14.0070   ; qtot -33.510
  1075        CN2     37      GUA     C2   1075     0.750000    12.0110   ; qtot -32.760
  1076       NN2G     37      GUA     N1   1076    -0.340000    14.0070   ; qtot -33.100
  1077        HN2     37      GUA     H1   1077     0.260000     1.0080   ; qtot -32.840
  1078        CN1     37      GUA     C6   1078     0.540000    12.0110   ; qtot -32.300
  1079        ON1     37      GUA     O6   1079    -0.510000    15.9994   ; qtot -32.810
  1080       CN5G     37      GUA     C5   1080     0.000000    12.0110   ; qtot -32.810
  1081        NN4     37      GUA     N7   1081    -0.600000    14.0070   ; qtot -33.410
  1082        CN4     37      GUA     C8   1082     0.250000    12.0110   ; qtot -33.160
  1083        HN3     37      GUA     H8   1083     0.160000     1.0080   ; qtot -33.000
  1084       CN7B     37      GUA    C2'   1084     0.140000    12.0110   ; qtot -32.860
  1085        HN7     37      GUA   H2''   1085     0.090000     1.0080   ; qtot -32.770
  1086        ON5     37      GUA    O2'   1086    -0.660000    15.9994   ; qtot -33.430
  1087        HN5     37      GUA    H2'   1087     0.430000     1.0080   ; qtot -33.000
  1088        CN7     37      GUA    C3'   1088     0.010000    12.0110   ; qtot -32.990
  1089        HN7     37      GUA    H3'   1089     0.090000     1.0080   ; qtot -32.900
  1090        ON2     37      GUA    O3'   1090    -0.570000    15.9994   ; qtot -33.470
  1091          P     38      CYT      P   1091     1.500000    30.9740   ; qtot -31.970
  1092        ON3     38      CYT    O1P   1092    -0.780000    15.9994   ; qtot -32.750
  1093        ON3     38      CYT    O2P   1093    -0.780000    15.9994   ; qtot -33.530
  1094        ON2     38      CYT    O5'   1094    -0.570000    15.9994   ; qtot -34.100
  1095       CN8B     38      CYT    C5'   1095    -0.080000    12.0110   ; qtot -34.180
  1096        HN8     38      CYT    H5'   1096     0.090000     1.0080   ; qtot -34.090
  1097        HN8     38      CYT   H5''   1097     0.090000     1.0080   ; qtot -34.000
  1098        CN7     38      CYT    C4'   1098     0.160000    12.0110   ; qtot -33.840
  1099        HN7     38      CYT    H4'   1099     0.090000     1.0080   ; qtot -33.750
  1100       ON6B     38      CYT    O4'   1100    -0.500000    15.9994   ; qtot -34.250
  1101       CN7B     38      CYT    C1'   1101     0.160000    12.0110   ; qtot -34.090
  1102        HN7     38      CYT    H1'   1102     0.090000     1.0080   ; qtot -34.000
  1103        NN2     38      CYT     N1   1103    -0.130000    14.0070   ; qtot -34.130
  1104        CN3     38      CYT     C6   1104     0.050000    12.0110   ; qtot -34.080
  1105        HN3     38      CYT     H6   1105     0.170000     1.0080   ; qtot -33.910
  1106        CN3     38      CYT     C5   1106    -0.130000    12.0110   ; qtot -34.040
  1107        HN3     38      CYT     H5   1107     0.070000     1.0080   ; qtot -33.970
  1108        CN1     38      CYT     C2   1108     0.520000    12.0110   ; qtot -33.450
  1109       ON1C     38      CYT     O2   1109    -0.490000    15.9994   ; qtot -33.940
  1110        NN3     38      CYT     N3   1110    -0.660000    14.0070   ; qtot -34.600
  1111        CN2     38      CYT     C4   1111     0.650000    12.0110   ; qtot -33.950
  1112        NN1     38      CYT     N4   1112    -0.750000    14.0070   ; qtot -34.700
  1113        HN1     38      CYT    H41   1113     0.370000     1.0080   ; qtot -34.330
  1114        HN1     38      CYT    H42   1114     0.330000     1.0080   ; qtot -34.000
  1115       CN7B     38      CYT    C2'   1115     0.140000    12.0110   ; qtot -33.860
  1116        HN7     38      CYT   H2''   1116     0.090000     1.0080   ; qtot -33.770
  1117        ON5     38      CYT    O2'   1117    -0.660000    15.9994   ; qtot -34.430
  1118        HN5     38      CYT    H2'   1118     0.430000     1.0080   ; qtot -34.000
  1119        CN7     38      CYT    C3'   1119     0.010000    12.0110   ; qtot -33.990
  1120        HN7     38      CYT    H3'   1120     0.090000     1.0080   ; qtot -33.900
  1121        ON2     38      CYT    O3'   1121    -0.570000    15.9994   ; qtot -34.470
  1122          P     39      URA      P   1122     1.500000    30.9740   ; qtot -32.970
  1123        ON3     39      URA    O1P   1123    -0.780000    15.9994   ; qtot -33.750
  1124        ON3     39      URA    O2P   1124    -0.780000    15.9994   ; qtot -34.530
  1125        ON2     39      URA    O5'   1125    -0.570000    15.9994   ; qtot -35.100
  1126       CN8B     39      URA    C5'   1126    -0.080000    12.0110   ; qtot -35.180
  1127        HN8     39      URA    H5'   1127     0.090000     1.0080   ; qtot -35.090
  1128        HN8     39      URA   H5''   1128     0.090000     1.0080   ; qtot -35.000
  1129        CN7     39      URA    C4'   1129     0.160000    12.0110   ; qtot -34.840
  1130        HN7     39      URA    H4'   1130     0.090000     1.0080   ; qtot -34.750
  1131       ON6B     39      URA    O4'   1131    -0.500000    15.9994   ; qtot -35.250
  1132       CN7B     39      URA    C1'   1132     0.160000    12.0110   ; qtot -35.090
  1133        HN7     39      URA    H1'   1133     0.090000     1.0080   ; qtot -35.000
  1134       NN2B     39      URA     N1   1134    -0.340000    14.0070   ; qtot -35.340
  1135        CN3     39      URA     C6   1135     0.200000    12.0110   ; qtot -35.140
  1136        HN3     39      URA     H6   1136     0.140000     1.0080   ; qtot -35.000
  1137       CN1T     39      URA     C2   1137     0.550000    12.0110   ; qtot -34.450
  1138        ON1     39      URA     O2   1138    -0.450000    15.9994   ; qtot -34.900
  1139       NN2U     39      URA     N3   1139    -0.460000    14.0070   ; qtot -35.360
  1140        HN2     39      URA     H3   1140     0.360000     1.0080   ; qtot -35.000
  1141        CN1     39      URA     C4   1141     0.530000    12.0110   ; qtot -34.470
  1142        ON1     39      URA     O4   1142    -0.480000    15.9994   ; qtot -34.950
  1143        CN3     39      URA     C5   1143    -0.150000    12.0110   ; qtot -35.100
  1144        HN3     39      URA     H5   1144     0.100000     1.0080   ; qtot -35.000
  1145       CN7B     39      URA    C2'   1145     0.140000    12.0110   ; qtot -34.860
  1146        HN7     39      URA   H2''   1146     0.090000     1.0080   ; qtot -34.770
  1147        ON5     39      URA    O2'   1147    -0.660000    15.9994   ; qtot -35.430
  1148        HN5     39      URA    H2'   1148     0.430000     1.0080   ; qtot -35.000
  1149        CN7     39      URA    C3'   1149     0.010000    12.0110   ; qtot -34.990
  1150        HN7     39      URA    H3'   1150     0.090000     1.0080   ; qtot -34.900
  1151        ON2     39      URA    O3'   1151    -0.570000    15.9994   ; qtot -35.470
  1152          P     40      GUA      P   1152     1.500000    30.9740   ; qtot -33.970
  1153        ON3     40      GUA    O1P   1153    -0.780000    15.9994   ; qtot -34.750
  1154        ON3     40      GUA    O2P   1154    -0.780000    15.9994   ; qtot -35.530
  1155        ON2     40      GUA    O5'   1155    -0.570000    15.9994   ; qtot -36.100
  1156       CN8B     40      GUA    C5'   1156    -0.080000    12.0110   ; qtot -36.180
  1157        HN8     40      GUA    H5'   1157     0.090000     1.0080   ; qtot -36.090
  1158        HN8     40      GUA   H5''   1158     0.090000     1.0080   ; qtot -36.000
  1159        CN7     40      GUA    C4'   1159     0.160000    12.0110   ; qtot -35.840
  1160        HN7     40      GUA    H4'   1160     0.090000     1.0080   ; qtot -35.750
  1161       ON6B     40      GUA    O4'   1161    -0.500000    15.9994   ; qtot -36.250
  1162       CN7B     40      GUA    C1'   1162     0.160000    12.0110   ; qtot -36.090
  1163        HN7     40      GUA    H1'   1163     0.090000     1.0080   ; qtot -36.000
  1164       NN2B     40      GUA     N9   1164    -0.020000    14.0070   ; qtot -36.020
  1165        CN5     40      GUA     C4   1165     0.260000    12.0110   ; qtot -35.760
  1166        NN1     40      GUA     N2   1166    -0.680000    14.0070   ; qtot -36.440
  1167        HN1     40      GUA    H21   1167     0.320000     1.0080   ; qtot -36.120
  1168        HN1     40      GUA    H22   1168     0.350000     1.0080   ; qtot -35.770
  1169       NN3G     40      GUA     N3   1169    -0.740000    14.0070   ; qtot -36.510
  1170        CN2     40      GUA     C2   1170     0.750000    12.0110   ; qtot -35.760
  1171       NN2G     40      GUA     N1   1171    -0.340000    14.0070   ; qtot -36.100
  1172        HN2     40      GUA     H1   1172     0.260000     1.0080   ; qtot -35.840
  1173        CN1     40      GUA     C6   1173     0.540000    12.0110   ; qtot -35.300
  1174        ON1     40      GUA     O6   1174    -0.510000    15.9994   ; qtot -35.810
  1175       CN5G     40      GUA     C5   1175     0.000000    12.0110   ; qtot -35.810
  1176        NN4     40      GUA     N7   1176    -0.600000    14.0070   ; qtot -36.410
  1177        CN4     40      GUA     C8   1177     0.250000    12.0110   ; qtot -36.160
  1178        HN3     40      GUA     H8   1178     0.160000     1.0080   ; qtot -36.000
  1179       CN7B     40      GUA    C2'   1179     0.140000    12.0110   ; qtot -35.860
  1180        HN7     40      GUA   H2''   1180     0.090000     1.0080   ; qtot -35.770
  1181        ON5     40      GUA    O2'   1181    -0.660000    15.9994   ; qtot -36.430
  1182        HN5     40      GUA    H2'   1182     0.430000     1.0080   ; qtot -36.000
  1183        CN7     40      GUA    C3'   1183     0.010000    12.0110   ; qtot -35.990
  1184        HN7     40      GUA    H3'   1184     0.090000     1.0080   ; qtot -35.900
  1185        ON2     40      GUA    O3'   1185    -0.570000    15.9994   ; qtot -36.470
  1186          P     41      ADE      P   1186     1.500000    30.9740   ; qtot -34.970
  1187        ON3     41      ADE    O1P   1187    -0.780000    15.9994   ; qtot -35.750
  1188        ON3     41      ADE    O2P   1188    -0.780000    15.9994   ; qtot -36.530
  1189        ON2     41      ADE    O5'   1189    -0.570000    15.9994   ; qtot -37.100
  1190       CN8B     41      ADE    C5'   1190    -0.080000    12.0110   ; qtot -37.180
  1191        HN8     41      ADE    H5'   1191     0.090000     1.0080   ; qtot -37.090
  1192        HN8     41      ADE   H5''   1192     0.090000     1.0080   ; qtot -37.000
  1193        CN7     41      ADE    C4'   1193     0.160000    12.0110   ; qtot -36.840
  1194        HN7     41      ADE    H4'   1194     0.090000     1.0080   ; qtot -36.750
  1195       ON6B     41      ADE    O4'   1195    -0.500000    15.9994   ; qtot -37.250
  1196       CN7B     41      ADE    C1'   1196     0.160000    12.0110   ; qtot -37.090
  1197        HN7     41      ADE    H1'   1197     0.090000     1.0080   ; qtot -37.000
  1198        NN2     41      ADE     N9   1198    -0.050000    14.0070   ; qtot -37.050
  1199        CN5     41      ADE     C5   1199     0.280000    12.0110   ; qtot -36.770
  1200        NN4     41      ADE     N7   1200    -0.710000    14.0070   ; qtot -37.480
  1201        CN4     41      ADE     C8   1201     0.340000    12.0110   ; qtot -37.140
  1202        HN3     41      ADE     H8   1202     0.120000     1.0080   ; qtot -37.020
  1203       NN3A     41      ADE     N1   1203    -0.740000    14.0070   ; qtot -37.760
  1204        CN4     41      ADE     C2   1204     0.500000    12.0110   ; qtot -37.260
  1205        HN3     41      ADE     H2   1205     0.130000     1.0080   ; qtot -37.130
  1206       NN3A     41      ADE     N3   1206    -0.750000    14.0070   ; qtot -37.880
  1207        CN5     41      ADE     C4   1207     0.430000    12.0110   ; qtot -37.450
  1208        CN2     41      ADE     C6   1208     0.460000    12.0110   ; qtot -36.990
  1209        NN1     41      ADE     N6   1209    -0.770000    14.0070   ; qtot -37.760
  1210        HN1     41      ADE    H61   1210     0.380000     1.0080   ; qtot -37.380
  1211        HN1     41      ADE    H62   1211     0.380000     1.0080   ; qtot -37.000
  1212       CN7B     41      ADE    C2'   1212     0.140000    12.0110   ; qtot -36.860
  1213        HN7     41      ADE   H2''   1213     0.090000     1.0080   ; qtot -36.770
  1214        ON5     41      ADE    O2'   1214    -0.660000    15.9994   ; qtot -37.430
  1215        HN5     41      ADE    H2'   1215     0.430000     1.0080   ; qtot -37.000
  1216        CN7     41      ADE    C3'   1216     0.010000    12.0110   ; qtot -36.990
  1217        HN7     41      ADE    H3'   1217     0.090000     1.0080   ; qtot -36.900
  1218        ON2     41      ADE    O3'   1218    -0.570000    15.9994   ; qtot -37.470
  1219          P     42      GUA      P   1219     1.500000    30.9740   ; qtot -35.970
  1220        ON3     42      GUA    O1P   1220    -0.780000    15.9994   ; qtot -36.750
  1221        ON3     42      GUA    O2P   1221    -0.780000    15.9994   ; qtot -37.530
  1222        ON2     42      GUA    O5'   1222    -0.570000    15.9994   ; qtot -38.100
  1223       CN8B     42      GUA    C5'   1223    -0.080000    12.0110   ; qtot -38.180
  1224        HN8     42      GUA    H5'   1224     0.090000     1.0080   ; qtot -38.090
  1225        HN8     42      GUA   H5''   1225     0.090000     1.0080   ; qtot -38.000
  1226        CN7     42      GUA    C4'   1226     0.160000    12.0110   ; qtot -37.840
  1227        HN7     42      GUA    H4'   1227     0.090000     1.0080   ; qtot -37.750
  1228       ON6B     42      GUA    O4'   1228    -0.500000    15.9994   ; qtot -38.250
  1229       CN7B     42      GUA    C1'   1229     0.160000    12.0110   ; qtot -38.090
  1230        HN7     42      GUA    H1'   1230     0.090000     1.0080   ; qtot -38.000
  1231       NN2B     42      GUA     N9   1231    -0.020000    14.0070   ; qtot -38.020
  1232        CN5     42      GUA     C4   1232     0.260000    12.0110   ; qtot -37.760
  1233        NN1     42      GUA     N2   1233    -0.680000    14.0070   ; qtot -38.440
  1234        HN1     42      GUA    H21   1234     0.320000     1.0080   ; qtot -38.120
  1235        HN1     42      GUA    H22   1235     0.350000     1.0080   ; qtot -37.770
  1236       NN3G     42      GUA     N3   1236    -0.740000    14.0070   ; qtot -38.510
  1237        CN2     42      GUA     C2   1237     0.750000    12.0110   ; qtot -37.760
  1238       NN2G     42      GUA     N1   1238    -0.340000    14.0070   ; qtot -38.100
  1239        HN2     42      GUA     H1   1239     0.260000     1.0080   ; qtot -37.840
  1240        CN1     42      GUA     C6   1240     0.540000    12.0110   ; qtot -37.300
  1241        ON1     42      GUA     O6   1241    -0.510000    15.9994   ; qtot -37.810
  1242       CN5G     42      GUA     C5   1242     0.000000    12.0110   ; qtot -37.810
  1243        NN4     42      GUA     N7   1243    -0.600000    14.0070   ; qtot -38.410
  1244        CN4     42      GUA     C8   1244     0.250000    12.0110   ; qtot -38.160
  1245        HN3     42      GUA     H8   1245     0.160000     1.0080   ; qtot -38.000
  1246       CN7B     42      GUA    C2'   1246     0.140000    12.0110   ; qtot -37.860
  1247        HN7     42      GUA   H2''   1247     0.090000     1.0080   ; qtot -37.770
  1248        ON5     42      GUA    O2'   1248    -0.660000    15.9994   ; qtot -38.430
  1249        HN5     42      GUA    H2'   1249     0.430000     1.0080   ; qtot -38.000
  1250        CN7     42      GUA    C3'   1250     0.010000    12.0110   ; qtot -37.990
  1251        HN7     42      GUA    H3'   1251     0.090000     1.0080   ; qtot -37.900
  1252        ON2     42      GUA    O3'   1252    -0.570000    15.9994   ; qtot -38.470
  1253          P     43      ADE      P   1253     1.500000    30.9740   ; qtot -36.970
  1254        ON3     43      ADE    O1P   1254    -0.780000    15.9994   ; qtot -37.750
  1255        ON3     43      ADE    O2P   1255    -0.780000    15.9994   ; qtot -38.530
  1256        ON2     43      ADE    O5'   1256    -0.570000    15.9994   ; qtot -39.100
  1257       CN8B     43      ADE    C5'   1257    -0.080000    12.0110   ; qtot -39.180
  1258        HN8     43      ADE    H5'   1258     0.090000     1.0080   ; qtot -39.090
  1259        HN8     43      ADE   H5''   1259     0.090000     1.0080   ; qtot -39.000
  1260        CN7     43      ADE    C4'   1260     0.160000    12.0110   ; qtot -38.840
  1261        HN7     43      ADE    H4'   1261     0.090000     1.0080   ; qtot -38.750
  1262       ON6B     43      ADE    O4'   1262    -0.500000    15.9994   ; qtot -39.250
  1263       CN7B     43      ADE    C1'   1263     0.160000    12.0110   ; qtot -39.090
  1264        HN7     43      ADE    H1'   1264     0.090000     1.0080   ; qtot -39.000
  1265        NN2     43      ADE     N9   1265    -0.050000    14.0070   ; qtot -39.050
  1266        CN5     43      ADE     C5   1266     0.280000    12.0110   ; qtot -38.770
  1267        NN4     43      ADE     N7   1267    -0.710000    14.0070   ; qtot -39.480
  1268        CN4     43      ADE     C8   1268     0.340000    12.0110   ; qtot -39.140
  1269        HN3     43      ADE     H8   1269     0.120000     1.0080   ; qtot -39.020
  1270       NN3A     43      ADE     N1   1270    -0.740000    14.0070   ; qtot -39.760
  1271        CN4     43      ADE     C2   1271     0.500000    12.0110   ; qtot -39.260
  1272        HN3     43      ADE     H2   1272     0.130000     1.0080   ; qtot -39.130
  1273       NN3A     43      ADE     N3   1273    -0.750000    14.0070   ; qtot -39.880
  1274        CN5     43      ADE     C4   1274     0.430000    12.0110   ; qtot -39.450
  1275        CN2     43      ADE     C6   1275     0.460000    12.0110   ; qtot -38.990
  1276        NN1     43      ADE     N6   1276    -0.770000    14.0070   ; qtot -39.760
  1277        HN1     43      ADE    H61   1277     0.380000     1.0080   ; qtot -39.380
  1278        HN1     43      ADE    H62   1278     0.380000     1.0080   ; qtot -39.000
  1279       CN7B     43      ADE    C2'   1279     0.140000    12.0110   ; qtot -38.860
  1280        HN7     43      ADE   H2''   1280     0.090000     1.0080   ; qtot -38.770
  1281        ON5     43      ADE    O2'   1281    -0.660000    15.9994   ; qtot -39.430
  1282        HN5     43      ADE    H2'   1282     0.430000     1.0080   ; qtot -39.000
  1283        CN7     43      ADE    C3'   1283     0.010000    12.0110   ; qtot -38.990
  1284        HN7     43      ADE    H3'   1284     0.090000     1.0080   ; qtot -38.900
  1285        ON2     43      ADE    O3'   1285    -0.570000    15.9994   ; qtot -39.470
  1286          P     44      ADE      P   1286     1.500000    30.9740   ; qtot -37.970
  1287        ON3     44      ADE    O1P   1287    -0.780000    15.9994   ; qtot -38.750
  1288        ON3     44      ADE    O2P   1288    -0.780000    15.9994   ; qtot -39.530
  1289        ON2     44      ADE    O5'   1289    -0.570000    15.9994   ; qtot -40.100
  1290       CN8B     44      ADE    C5'   1290    -0.080000    12.0110   ; qtot -40.180
  1291        HN8     44      ADE    H5'   1291     0.090000     1.0080   ; qtot -40.090
  1292        HN8     44      ADE   H5''   1292     0.090000     1.0080   ; qtot -40.000
  1293        CN7     44      ADE    C4'   1293     0.160000    12.0110   ; qtot -39.840
  1294        HN7     44      ADE    H4'   1294     0.090000     1.0080   ; qtot -39.750
  1295       ON6B     44      ADE    O4'   1295    -0.500000    15.9994   ; qtot -40.250
  1296       CN7B     44      ADE    C1'   1296     0.160000    12.0110   ; qtot -40.090
  1297        HN7     44      ADE    H1'   1297     0.090000     1.0080   ; qtot -40.000
  1298        NN2     44      ADE     N9   1298    -0.050000    14.0070   ; qtot -40.050
  1299        CN5     44      ADE     C5   1299     0.280000    12.0110   ; qtot -39.770
  1300        NN4     44      ADE     N7   1300    -0.710000    14.0070   ; qtot -40.480
  1301        CN4     44      ADE     C8   1301     0.340000    12.0110   ; qtot -40.140
  1302        HN3     44      ADE     H8   1302     0.120000     1.0080   ; qtot -40.020
  1303       NN3A     44      ADE     N1   1303    -0.740000    14.0070   ; qtot -40.760
  1304        CN4     44      ADE     C2   1304     0.500000    12.0110   ; qtot -40.260
  1305        HN3     44      ADE     H2   1305     0.130000     1.0080   ; qtot -40.130
  1306       NN3A     44      ADE     N3   1306    -0.750000    14.0070   ; qtot -40.880
  1307        CN5     44      ADE     C4   1307     0.430000    12.0110   ; qtot -40.450
  1308        CN2     44      ADE     C6   1308     0.460000    12.0110   ; qtot -39.990
  1309        NN1     44      ADE     N6   1309    -0.770000    14.0070   ; qtot -40.760
  1310        HN1     44      ADE    H61   1310     0.380000     1.0080   ; qtot -40.380
  1311        HN1     44      ADE    H62   1311     0.380000     1.0080   ; qtot -40.000
  1312       CN7B     44      ADE    C2'   1312     0.140000    12.0110   ; qtot -39.860
  1313        HN7     44      ADE   H2''   1313     0.090000     1.0080   ; qtot -39.770
  1314        ON5     44      ADE    O2'   1314    -0.660000    15.9994   ; qtot -40.430
  1315        HN5     44      ADE    H2'   1315     0.430000     1.0080   ; qtot -40.000
  1316        CN7     44      ADE    C3'   1316     0.010000    12.0110   ; qtot -39.990
  1317        HN7     44      ADE    H3'   1317     0.090000     1.0080   ; qtot -39.900
  1318        ON2     44      ADE    O3'   1318    -0.570000    15.9994   ; qtot -40.470
  1319          P     45      ADE      P   1319     1.500000    30.9740   ; qtot -38.970
  1320        ON3     45      ADE    O1P   1320    -0.780000    15.9994   ; qtot -39.750
  1321        ON3     45      ADE    O2P   1321    -0.780000    15.9994   ; qtot -40.530
  1322        ON2     45      ADE    O5'   1322    -0.570000    15.9994   ; qtot -41.100
  1323       CN8B     45      ADE    C5'   1323    -0.080000    12.0110   ; qtot -41.180
  1324        HN8     45      ADE    H5'   1324     0.090000     1.0080   ; qtot -41.090
  1325        HN8     45      ADE   H5''   1325     0.090000     1.0080   ; qtot -41.000
  1326        CN7     45      ADE    C4'   1326     0.160000    12.0110   ; qtot -40.840
  1327        HN7     45      ADE    H4'   1327     0.090000     1.0080   ; qtot -40.750
  1328       ON6B     45      ADE    O4'   1328    -0.500000    15.9994   ; qtot -41.250
  1329       CN7B     45      ADE    C1'   1329     0.160000    12.0110   ; qtot -41.090
  1330        HN7     45      ADE    H1'   1330     0.090000     1.0080   ; qtot -41.000
  1331        NN2     45      ADE     N9   1331    -0.050000    14.0070   ; qtot -41.050
  1332        CN5     45      ADE     C5   1332     0.280000    12.0110   ; qtot -40.770
  1333        NN4     45      ADE     N7   1333    -0.710000    14.0070   ; qtot -41.480
  1334        CN4     45      ADE     C8   1334     0.340000    12.0110   ; qtot -41.140
  1335        HN3     45      ADE     H8   1335     0.120000     1.0080   ; qtot -41.020
  1336       NN3A     45      ADE     N1   1336    -0.740000    14.0070   ; qtot -41.760
  1337        CN4     45      ADE     C2   1337     0.500000    12.0110   ; qtot -41.260
  1338        HN3     45      ADE     H2   1338     0.130000     1.0080   ; qtot -41.130
  1339       NN3A     45      ADE     N3   1339    -0.750000    14.0070   ; qtot -41.880
  1340        CN5     45      ADE     C4   1340     0.430000    12.0110   ; qtot -41.450
  1341        CN2     45      ADE     C6   1341     0.460000    12.0110   ; qtot -40.990
  1342        NN1     45      ADE     N6   1342    -0.770000    14.0070   ; qtot -41.760
  1343        HN1     45      ADE    H61   1343     0.380000     1.0080   ; qtot -41.380
  1344        HN1     45      ADE    H62   1344     0.380000     1.0080   ; qtot -41.000
  1345       CN7B     45      ADE    C2'   1345     0.140000    12.0110   ; qtot -40.860
  1346        HN7     45      ADE   H2''   1346     0.090000     1.0080   ; qtot -40.770
  1347        ON5     45      ADE    O2'   1347    -0.660000    15.9994   ; qtot -41.430
  1348        HN5     45      ADE    H2'   1348     0.430000     1.0080   ; qtot -41.000
  1349        CN7     45      ADE    C3'   1349     0.010000    12.0110   ; qtot -40.990
  1350        HN7     45      ADE    H3'   1350     0.090000     1.0080   ; qtot -40.900
  1351        ON2     45      ADE    O3'   1351    -0.570000    15.9994   ; qtot -41.470
  1352          P     46      URA      P   1352     1.500000    30.9740   ; qtot -39.970
  1353        ON3     46      URA    O1P   1353    -0.780000    15.9994   ; qtot -40.750
  1354        ON3     46      URA    O2P   1354    -0.780000    15.9994   ; qtot -41.530
  1355        ON2     46      URA    O5'   1355    -0.570000    15.9994   ; qtot -42.100
  1356       CN8B     46      URA    C5'   1356    -0.080000    12.0110   ; qtot -42.180
  1357        HN8     46      URA    H5'   1357     0.090000     1.0080   ; qtot -42.090
  1358        HN8     46      URA   H5''   1358     0.090000     1.0080   ; qtot -42.000
  1359        CN7     46      URA    C4'   1359     0.160000    12.0110   ; qtot -41.840
  1360        HN7     46      URA    H4'   1360     0.090000     1.0080   ; qtot -41.750
  1361       ON6B     46      URA    O4'   1361    -0.500000    15.9994   ; qtot -42.250
  1362       CN7B     46      URA    C1'   1362     0.160000    12.0110   ; qtot -42.090
  1363        HN7     46      URA    H1'   1363     0.090000     1.0080   ; qtot -42.000
  1364       NN2B     46      URA     N1   1364    -0.340000    14.0070   ; qtot -42.340
  1365        CN3     46      URA     C6   1365     0.200000    12.0110   ; qtot -42.140
  1366        HN3     46      URA     H6   1366     0.140000     1.0080   ; qtot -42.000
  1367       CN1T     46      URA     C2   1367     0.550000    12.0110   ; qtot -41.450
  1368        ON1     46      URA     O2   1368    -0.450000    15.9994   ; qtot -41.900
  1369       NN2U     46      URA     N3   1369    -0.460000    14.0070   ; qtot -42.360
  1370        HN2     46      URA     H3   1370     0.360000     1.0080   ; qtot -42.000
  1371        CN1     46      URA     C4   1371     0.530000    12.0110   ; qtot -41.470
  1372        ON1     46      URA     O4   1372    -0.480000    15.9994   ; qtot -41.950
  1373        CN3     46      URA     C5   1373    -0.150000    12.0110   ; qtot -42.100
  1374        HN3     46      URA     H5   1374     0.100000     1.0080   ; qtot -42.000
  1375       CN7B     46      URA    C2'   1375     0.140000    12.0110   ; qtot -41.860
  1376        HN7     46      URA   H2''   1376     0.090000     1.0080   ; qtot -41.770
  1377        ON5     46      URA    O2'   1377    -0.660000    15.9994   ; qtot -42.430
  1378        HN5     46      URA    H2'   1378     0.430000     1.0080   ; qtot -42.000
  1379        CN7     46      URA    C3'   1379     0.010000    12.0110   ; qtot -41.990
  1380        HN7     46      URA    H3'   1380     0.090000     1.0080   ; qtot -41.900
  1381        ON2     46      URA    O3'   1381    -0.570000    15.9994   ; qtot -42.470
  1382          P     47      ADE      P   1382     1.500000    30.9740   ; qtot -40.970
  1383        ON3     47      ADE    O1P   1383    -0.780000    15.9994   ; qtot -41.750
  1384        ON3     47      ADE    O2P   1384    -0.780000    15.9994   ; qtot -42.530
  1385        ON2     47      ADE    O5'   1385    -0.570000    15.9994   ; qtot -43.100
  1386       CN8B     47      ADE    C5'   1386    -0.080000    12.0110   ; qtot -43.180
  1387        HN8     47      ADE    H5'   1387     0.090000     1.0080   ; qtot -43.090
  1388        HN8     47      ADE   H5''   1388     0.090000     1.0080   ; qtot -43.000
  1389        CN7     47      ADE    C4'   1389     0.160000    12.0110   ; qtot -42.840
  1390        HN7     47      ADE    H4'   1390     0.090000     1.0080   ; qtot -42.750
  1391       ON6B     47      ADE    O4'   1391    -0.500000    15.9994   ; qtot -43.250
  1392       CN7B     47      ADE    C1'   1392     0.160000    12.0110   ; qtot -43.090
  1393        HN7     47      ADE    H1'   1393     0.090000     1.0080   ; qtot -43.000
  1394        NN2     47      ADE     N9   1394    -0.050000    14.0070   ; qtot -43.050
  1395        CN5     47      ADE     C5   1395     0.280000    12.0110   ; qtot -42.770
  1396        NN4     47      ADE     N7   1396    -0.710000    14.0070   ; qtot -43.480
  1397        CN4     47      ADE     C8   1397     0.340000    12.0110   ; qtot -43.140
  1398        HN3     47      ADE     H8   1398     0.120000     1.0080   ; qtot -43.020
  1399       NN3A     47      ADE     N1   1399    -0.740000    14.0070   ; qtot -43.760
  1400        CN4     47      ADE     C2   1400     0.500000    12.0110   ; qtot -43.260
  1401        HN3     47      ADE     H2   1401     0.130000     1.0080   ; qtot -43.130
  1402       NN3A     47      ADE     N3   1402    -0.750000    14.0070   ; qtot -43.880
  1403        CN5     47      ADE     C4   1403     0.430000    12.0110   ; qtot -43.450
  1404        CN2     47      ADE     C6   1404     0.460000    12.0110   ; qtot -42.990
  1405        NN1     47      ADE     N6   1405    -0.770000    14.0070   ; qtot -43.760
  1406        HN1     47      ADE    H61   1406     0.380000     1.0080   ; qtot -43.380
  1407        HN1     47      ADE    H62   1407     0.380000     1.0080   ; qtot -43.000
  1408       CN7B     47      ADE    C2'   1408     0.140000    12.0110   ; qtot -42.860
  1409        HN7     47      ADE   H2''   1409     0.090000     1.0080   ; qtot -42.770
  1410        ON5     47      ADE    O2'   1410    -0.660000    15.9994   ; qtot -43.430
  1411        HN5     47      ADE    H2'   1411     0.430000     1.0080   ; qtot -43.000
  1412        CN7     47      ADE    C3'   1412     0.010000    12.0110   ; qtot -42.990
  1413        HN7     47      ADE    H3'   1413     0.090000     1.0080   ; qtot -42.900
  1414        ON2     47      ADE    O3'   1414    -0.570000    15.9994   ; qtot -43.470
  1415          P     48      CYT      P   1415     1.500000    30.9740   ; qtot -41.970
  1416        ON3     48      CYT    O1P   1416    -0.780000    15.9994   ; qtot -42.750
  1417        ON3     48      CYT    O2P   1417    -0.780000    15.9994   ; qtot -43.530
  1418        ON2     48      CYT    O5'   1418    -0.570000    15.9994   ; qtot -44.100
  1419       CN8B     48      CYT    C5'   1419    -0.080000    12.0110   ; qtot -44.180
  1420        HN8     48      CYT    H5'   1420     0.090000     1.0080   ; qtot -44.090
  1421        HN8     48      CYT   H5''   1421     0.090000     1.0080   ; qtot -44.000
  1422        CN7     48      CYT    C4'   1422     0.160000    12.0110   ; qtot -43.840
  1423        HN7     48      CYT    H4'   1423     0.090000     1.0080   ; qtot -43.750
  1424       ON6B     48      CYT    O4'   1424    -0.500000    15.9994   ; qtot -44.250
  1425       CN7B     48      CYT    C1'   1425     0.160000    12.0110   ; qtot -44.090
  1426        HN7     48      CYT    H1'   1426     0.090000     1.0080   ; qtot -44.000
  1427        NN2     48      CYT     N1   1427    -0.130000    14.0070   ; qtot -44.130
  1428        CN3     48      CYT     C6   1428     0.050000    12.0110   ; qtot -44.080
  1429        HN3     48      CYT     H6   1429     0.170000     1.0080   ; qtot -43.910
  1430        CN3     48      CYT     C5   1430    -0.130000    12.0110   ; qtot -44.040
  1431        HN3     48      CYT     H5   1431     0.070000     1.0080   ; qtot -43.970
  1432        CN1     48      CYT     C2   1432     0.520000    12.0110   ; qtot -43.450
  1433       ON1C     48      CYT     O2   1433    -0.490000    15.9994   ; qtot -43.940
  1434        NN3     48      CYT     N3   1434    -0.660000    14.0070   ; qtot -44.600
  1435        CN2     48      CYT     C4   1435     0.650000    12.0110   ; qtot -43.950
  1436        NN1     48      CYT     N4   1436    -0.750000    14.0070   ; qtot -44.700
  1437        HN1     48      CYT    H41   1437     0.370000     1.0080   ; qtot -44.330
  1438        HN1     48      CYT    H42   1438     0.330000     1.0080   ; qtot -44.000
  1439       CN7B     48      CYT    C2'   1439     0.140000    12.0110   ; qtot -43.860
  1440        HN7     48      CYT   H2''   1440     0.090000     1.0080   ; qtot -43.770
  1441        ON5     48      CYT    O2'   1441    -0.660000    15.9994   ; qtot -44.430
  1442        HN5     48      CYT    H2'   1442     0.430000     1.0080   ; qtot -44.000
  1443        CN7     48      CYT    C3'   1443     0.010000    12.0110   ; qtot -43.990
  1444        HN7     48      CYT    H3'   1444     0.090000     1.0080   ; qtot -43.900
  1445        ON2     48      CYT    O3'   1445    -0.570000    15.9994   ; qtot -44.470
  1446          P     49      CYT      P   1446     1.500000    30.9740   ; qtot -42.970
  1447        ON3     49      CYT    O1P   1447    -0.780000    15.9994   ; qtot -43.750
  1448        ON3     49      CYT    O2P   1448    -0.780000    15.9994   ; qtot -44.530
  1449        ON2     49      CYT    O5'   1449    -0.570000    15.9994   ; qtot -45.100
  1450       CN8B     49      CYT    C5'   1450    -0.080000    12.0110   ; qtot -45.180
  1451        HN8     49      CYT    H5'   1451     0.090000     1.0080   ; qtot -45.090
  1452        HN8     49      CYT   H5''   1452     0.090000     1.0080   ; qtot -45.000
  1453        CN7     49      CYT    C4'   1453     0.160000    12.0110   ; qtot -44.840
  1454        HN7     49      CYT    H4'   1454     0.090000     1.0080   ; qtot -44.750
  1455       ON6B     49      CYT    O4'   1455    -0.500000    15.9994   ; qtot -45.250
  1456       CN7B     49      CYT    C1'   1456     0.160000    12.0110   ; qtot -45.090
  1457        HN7     49      CYT    H1'   1457     0.090000     1.0080   ; qtot -45.000
  1458        NN2     49      CYT     N1   1458    -0.130000    14.0070   ; qtot -45.130
  1459        CN3     49      CYT     C6   1459     0.050000    12.0110   ; qtot -45.080
  1460        HN3     49      CYT     H6   1460     0.170000     1.0080   ; qtot -44.910
  1461        CN3     49      CYT     C5   1461    -0.130000    12.0110   ; qtot -45.040
  1462        HN3     49      CYT     H5   1462     0.070000     1.0080   ; qtot -44.970
  1463        CN1     49      CYT     C2   1463     0.520000    12.0110   ; qtot -44.450
  1464       ON1C     49      CYT     O2   1464    -0.490000    15.9994   ; qtot -44.940
  1465        NN3     49      CYT     N3   1465    -0.660000    14.0070   ; qtot -45.600
  1466        CN2     49      CYT     C4   1466     0.650000    12.0110   ; qtot -44.950
  1467        NN1     49      CYT     N4   1467    -0.750000    14.0070   ; qtot -45.700
  1468        HN1     49      CYT    H41   1468     0.370000     1.0080   ; qtot -45.330
  1469        HN1     49      CYT    H42   1469     0.330000     1.0080   ; qtot -45.000
  1470       CN7B     49      CYT    C2'   1470     0.140000    12.0110   ; qtot -44.860
  1471        HN7     49      CYT   H2''   1471     0.090000     1.0080   ; qtot -44.770
  1472        ON5     49      CYT    O2'   1472    -0.660000    15.9994   ; qtot -45.430
  1473        HN5     49      CYT    H2'   1473     0.430000     1.0080   ; qtot -45.000
  1474        CN7     49      CYT    C3'   1474     0.010000    12.0110   ; qtot -44.990
  1475        HN7     49      CYT    H3'   1475     0.090000     1.0080   ; qtot -44.900
  1476        ON2     49      CYT    O3'   1476    -0.570000    15.9994   ; qtot -45.470
  1477          P     50      CYT      P   1477     1.500000    30.9740   ; qtot -43.970
  1478        ON3     50      CYT    O1P   1478    -0.780000    15.9994   ; qtot -44.750
  1479        ON3     50      CYT    O2P   1479    -0.780000    15.9994   ; qtot -45.530
  1480        ON2     50      CYT    O5'   1480    -0.570000    15.9994   ; qtot -46.100
  1481       CN8B     50      CYT    C5'   1481    -0.080000    12.0110   ; qtot -46.180
  1482        HN8     50      CYT    H5'   1482     0.090000     1.0080   ; qtot -46.090
  1483        HN8     50      CYT   H5''   1483     0.090000     1.0080   ; qtot -46.000
  1484        CN7     50      CYT    C4'   1484     0.160000    12.0110   ; qtot -45.840
  1485        HN7     50      CYT    H4'   1485     0.090000     1.0080   ; qtot -45.750
  1486       ON6B     50      CYT    O4'   1486    -0.500000    15.9994   ; qtot -46.250
  1487       CN7B     50      CYT    C1'   1487     0.160000    12.0110   ; qtot -46.090
  1488        HN7     50      CYT    H1'   1488     0.090000     1.0080   ; qtot -46.000
  1489        NN2     50      CYT     N1   1489    -0.130000    14.0070   ; qtot -46.130
  1490        CN3     50      CYT     C6   1490     0.050000    12.0110   ; qtot -46.080
  1491        HN3     50      CYT     H6   1491     0.170000     1.0080   ; qtot -45.910
  1492        CN3     50      CYT     C5   1492    -0.130000    12.0110   ; qtot -46.040
  1493        HN3     50      CYT     H5   1493     0.070000     1.0080   ; qtot -45.970
  1494        CN1     50      CYT     C2   1494     0.520000    12.0110   ; qtot -45.450
  1495       ON1C     50      CYT     O2   1495    -0.490000    15.9994   ; qtot -45.940
  1496        NN3     50      CYT     N3   1496    -0.660000    14.0070   ; qtot -46.600
  1497        CN2     50      CYT     C4   1497     0.650000    12.0110   ; qtot -45.950
  1498        NN1     50      CYT     N4   1498    -0.750000    14.0070   ; qtot -46.700
  1499        HN1     50      CYT    H41   1499     0.370000     1.0080   ; qtot -46.330
  1500        HN1     50      CYT    H42   1500     0.330000     1.0080   ; qtot -46.000
  1501       CN7B     50      CYT    C2'   1501     0.140000    12.0110   ; qtot -45.860
  1502        HN7     50      CYT   H2''   1502     0.090000     1.0080   ; qtot -45.770
  1503        ON5     50      CYT    O2'   1503    -0.660000    15.9994   ; qtot -46.430
  1504        HN5     50      CYT    H2'   1504     0.430000     1.0080   ; qtot -46.000
  1505        CN7     50      CYT    C3'   1505     0.010000    12.0110   ; qtot -45.990
  1506        HN7     50      CYT    H3'   1506     0.090000     1.0080   ; qtot -45.900
  1507        ON2     50      CYT    O3'   1507    -0.570000    15.9994   ; qtot -46.470
  1508          P     51      GUA      P   1508     1.500000    30.9740   ; qtot -44.970
  1509        ON3     51      GUA    O1P   1509    -0.780000    15.9994   ; qtot -45.750
  1510        ON3     51      GUA    O2P   1510    -0.780000    15.9994   ; qtot -46.530
  1511        ON2     51      GUA    O5'   1511    -0.570000    15.9994   ; qtot -47.100
  1512       CN8B     51      GUA    C5'   1512    -0.080000    12.0110   ; qtot -47.180
  1513        HN8     51      GUA    H5'   1513     0.090000     1.0080   ; qtot -47.090
  1514        HN8     51      GUA   H5''   1514     0.090000     1.0080   ; qtot -47.000
  1515        CN7     51      GUA    C4'   1515     0.160000    12.0110   ; qtot -46.840
  1516        HN7     51      GUA    H4'   1516     0.090000     1.0080   ; qtot -46.750
  1517       ON6B     51      GUA    O4'   1517    -0.500000    15.9994   ; qtot -47.250
  1518       CN7B     51      GUA    C1'   1518     0.160000    12.0110   ; qtot -47.090
  1519        HN7     51      GUA    H1'   1519     0.090000     1.0080   ; qtot -47.000
  1520       NN2B     51      GUA     N9   1520    -0.020000    14.0070   ; qtot -47.020
  1521        CN5     51      GUA     C4   1521     0.260000    12.0110   ; qtot -46.760
  1522        NN1     51      GUA     N2   1522    -0.680000    14.0070   ; qtot -47.440
  1523        HN1     51      GUA    H21   1523     0.320000     1.0080   ; qtot -47.120
  1524        HN1     51      GUA    H22   1524     0.350000     1.0080   ; qtot -46.770
  1525       NN3G     51      GUA     N3   1525    -0.740000    14.0070   ; qtot -47.510
  1526        CN2     51      GUA     C2   1526     0.750000    12.0110   ; qtot -46.760
  1527       NN2G     51      GUA     N1   1527    -0.340000    14.0070   ; qtot -47.100
  1528        HN2     51      GUA     H1   1528     0.260000     1.0080   ; qtot -46.840
  1529        CN1     51      GUA     C6   1529     0.540000    12.0110   ; qtot -46.300
  1530        ON1     51      GUA     O6   1530    -0.510000    15.9994   ; qtot -46.810
  1531       CN5G     51      GUA     C5   1531     0.000000    12.0110   ; qtot -46.810
  1532        NN4     51      GUA     N7   1532    -0.600000    14.0070   ; qtot -47.410
  1533        CN4     51      GUA     C8   1533     0.250000    12.0110   ; qtot -47.160
  1534        HN3     51      GUA     H8   1534     0.160000     1.0080   ; qtot -47.000
  1535       CN7B     51      GUA    C2'   1535     0.140000    12.0110   ; qtot -46.860
  1536        HN7     51      GUA   H2''   1536     0.090000     1.0080   ; qtot -46.770
  1537        ON5     51      GUA    O2'   1537    -0.660000    15.9994   ; qtot -47.430
  1538        HN5     51      GUA    H2'   1538     0.430000     1.0080   ; qtot -47.000
  1539        CN7     51      GUA    C3'   1539     0.010000    12.0110   ; qtot -46.990
  1540        HN7     51      GUA    H3'   1540     0.090000     1.0080   ; qtot -46.900
  1541        ON2     51      GUA    O3'   1541    -0.570000    15.9994   ; qtot -47.470
  1542          P     52      URA      P   1542     1.500000    30.9740   ; qtot -45.970
  1543        ON3     52      URA    O1P   1543    -0.780000    15.9994   ; qtot -46.750
  1544        ON3     52      URA    O2P   1544    -0.780000    15.9994   ; qtot -47.530
  1545        ON2     52      URA    O5'   1545    -0.570000    15.9994   ; qtot -48.100
  1546       CN8B     52      URA    C5'   1546    -0.080000    12.0110   ; qtot -48.180
  1547        HN8     52      URA    H5'   1547     0.090000     1.0080   ; qtot -48.090
  1548        HN8     52      URA   H5''   1548     0.090000     1.0080   ; qtot -48.000
  1549        CN7     52      URA    C4'   1549     0.160000    12.0110   ; qtot -47.840
  1550        HN7     52      URA    H4'   1550     0.090000     1.0080   ; qtot -47.750
  1551       ON6B     52      URA    O4'   1551    -0.500000    15.9994   ; qtot -48.250
  1552       CN7B     52      URA    C1'   1552     0.160000    12.0110   ; qtot -48.090
  1553        HN7     52      URA    H1'   1553     0.090000     1.0080   ; qtot -48.000
  1554       NN2B     52      URA     N1   1554    -0.340000    14.0070   ; qtot -48.340
  1555        CN3     52      URA     C6   1555     0.200000    12.0110   ; qtot -48.140
  1556        HN3     52      URA     H6   1556     0.140000     1.0080   ; qtot -48.000
  1557       CN1T     52      URA     C2   1557     0.550000    12.0110   ; qtot -47.450
  1558        ON1     52      URA     O2   1558    -0.450000    15.9994   ; qtot -47.900
  1559       NN2U     52      URA     N3   1559    -0.460000    14.0070   ; qtot -48.360
  1560        HN2     52      URA     H3   1560     0.360000     1.0080   ; qtot -48.000
  1561        CN1     52      URA     C4   1561     0.530000    12.0110   ; qtot -47.470
  1562        ON1     52      URA     O4   1562    -0.480000    15.9994   ; qtot -47.950
  1563        CN3     52      URA     C5   1563    -0.150000    12.0110   ; qtot -48.100
  1564        HN3     52      URA     H5   1564     0.100000     1.0080   ; qtot -48.000
  1565       CN7B     52      URA    C2'   1565     0.140000    12.0110   ; qtot -47.860
  1566        HN7     52      URA   H2''   1566     0.090000     1.0080   ; qtot -47.770
  1567        ON5     52      URA    O2'   1567    -0.660000    15.9994   ; qtot -48.430
  1568        HN5     52      URA    H2'   1568     0.430000     1.0080   ; qtot -48.000
  1569        CN7     52      URA    C3'   1569     0.010000    12.0110   ; qtot -47.990
  1570        HN7     52      URA    H3'   1570     0.090000     1.0080   ; qtot -47.900
  1571        ON2     52      URA    O3'   1571    -0.570000    15.9994   ; qtot -48.470
  1572          P     53      ADE      P   1572     1.500000    30.9740   ; qtot -46.970
  1573        ON3     53      ADE    O1P   1573    -0.780000    15.9994   ; qtot -47.750
  1574        ON3     53      ADE    O2P   1574    -0.780000    15.9994   ; qtot -48.530
  1575        ON2     53      ADE    O5'   1575    -0.570000    15.9994   ; qtot -49.100
  1576       CN8B     53      ADE    C5'   1576    -0.080000    12.0110   ; qtot -49.180
  1577        HN8     53      ADE    H5'   1577     0.090000     1.0080   ; qtot -49.090
  1578        HN8     53      ADE   H5''   1578     0.090000     1.0080   ; qtot -49.000
  1579        CN7     53      ADE    C4'   1579     0.160000    12.0110   ; qtot -48.840
  1580        HN7     53      ADE    H4'   1580     0.090000     1.0080   ; qtot -48.750
  1581       ON6B     53      ADE    O4'   1581    -0.500000    15.9994   ; qtot -49.250
  1582       CN7B     53      ADE    C1'   1582     0.160000    12.0110   ; qtot -49.090
  1583        HN7     53      ADE    H1'   1583     0.090000     1.0080   ; qtot -49.000
  1584        NN2     53      ADE     N9   1584    -0.050000    14.0070   ; qtot -49.050
  1585        CN5     53      ADE     C5   1585     0.280000    12.0110   ; qtot -48.770
  1586        NN4     53      ADE     N7   1586    -0.710000    14.0070   ; qtot -49.480
  1587        CN4     53      ADE     C8   1587     0.340000    12.0110   ; qtot -49.140
  1588        HN3     53      ADE     H8   1588     0.120000     1.0080   ; qtot -49.020
  1589       NN3A     53      ADE     N1   1589    -0.740000    14.0070   ; qtot -49.760
  1590        CN4     53      ADE     C2   1590     0.500000    12.0110   ; qtot -49.260
  1591        HN3     53      ADE     H2   1591     0.130000     1.0080   ; qtot -49.130
  1592       NN3A     53      ADE     N3   1592    -0.750000    14.0070   ; qtot -49.880
  1593        CN5     53      ADE     C4   1593     0.430000    12.0110   ; qtot -49.450
  1594        CN2     53      ADE     C6   1594     0.460000    12.0110   ; qtot -48.990
  1595        NN1     53      ADE     N6   1595    -0.770000    14.0070   ; qtot -49.760
  1596        HN1     53      ADE    H61   1596     0.380000     1.0080   ; qtot -49.380
  1597        HN1     53      ADE    H62   1597     0.380000     1.0080   ; qtot -49.000
  1598       CN7B     53      ADE    C2'   1598     0.140000    12.0110   ; qtot -48.860
  1599        HN7     53      ADE   H2''   1599     0.090000     1.0080   ; qtot -48.770
  1600        ON5     53      ADE    O2'   1600    -0.660000    15.9994   ; qtot -49.430
  1601        HN5     53      ADE    H2'   1601     0.430000     1.0080   ; qtot -49.000
  1602        CN7     53      ADE    C3'   1602     0.010000    12.0110   ; qtot -48.990
  1603        HN7     53      ADE    H3'   1603     0.090000     1.0080   ; qtot -48.900
  1604        ON2     53      ADE    O3'   1604    -0.570000    15.9994   ; qtot -49.470
  1605          P     54      URA      P   1605     1.500000    30.9740   ; qtot -47.970
  1606        ON3     54      URA    O1P   1606    -0.780000    15.9994   ; qtot -48.750
  1607        ON3     54      URA    O2P   1607    -0.780000    15.9994   ; qtot -49.530
  1608        ON2     54      URA    O5'   1608    -0.570000    15.9994   ; qtot -50.100
  1609       CN8B     54      URA    C5'   1609    -0.080000    12.0110   ; qtot -50.180
  1610        HN8     54      URA    H5'   1610     0.090000     1.0080   ; qtot -50.090
  1611        HN8     54      URA   H5''   1611     0.090000     1.0080   ; qtot -50.000
  1612        CN7     54      URA    C4'   1612     0.160000    12.0110   ; qtot -49.840
  1613        HN7     54      URA    H4'   1613     0.090000     1.0080   ; qtot -49.750
  1614       ON6B     54      URA    O4'   1614    -0.500000    15.9994   ; qtot -50.250
  1615       CN7B     54      URA    C1'   1615     0.160000    12.0110   ; qtot -50.090
  1616        HN7     54      URA    H1'   1616     0.090000     1.0080   ; qtot -50.000
  1617       NN2B     54      URA     N1   1617    -0.340000    14.0070   ; qtot -50.340
  1618        CN3     54      URA     C6   1618     0.200000    12.0110   ; qtot -50.140
  1619        HN3     54      URA     H6   1619     0.140000     1.0080   ; qtot -50.000
  1620       CN1T     54      URA     C2   1620     0.550000    12.0110   ; qtot -49.450
  1621        ON1     54      URA     O2   1621    -0.450000    15.9994   ; qtot -49.900
  1622       NN2U     54      URA     N3   1622    -0.460000    14.0070   ; qtot -50.360
  1623        HN2     54      URA     H3   1623     0.360000     1.0080   ; qtot -50.000
  1624        CN1     54      URA     C4   1624     0.530000    12.0110   ; qtot -49.470
  1625        ON1     54      URA     O4   1625    -0.480000    15.9994   ; qtot -49.950
  1626        CN3     54      URA     C5   1626    -0.150000    12.0110   ; qtot -50.100
  1627        HN3     54      URA     H5   1627     0.100000     1.0080   ; qtot -50.000
  1628       CN7B     54      URA    C2'   1628     0.140000    12.0110   ; qtot -49.860
  1629        HN7     54      URA   H2''   1629     0.090000     1.0080   ; qtot -49.770
  1630        ON5     54      URA    O2'   1630    -0.660000    15.9994   ; qtot -50.430
  1631        HN5     54      URA    H2'   1631     0.430000     1.0080   ; qtot -50.000
  1632        CN7     54      URA    C3'   1632     0.010000    12.0110   ; qtot -49.990
  1633        HN7     54      URA    H3'   1633     0.090000     1.0080   ; qtot -49.900
  1634        ON2     54      URA    O3'   1634    -0.570000    15.9994   ; qtot -50.470
  1635          P     55      CYT      P   1635     1.500000    30.9740   ; qtot -48.970
  1636        ON3     55      CYT    O1P   1636    -0.780000    15.9994   ; qtot -49.750
  1637        ON3     55      CYT    O2P   1637    -0.780000    15.9994   ; qtot -50.530
  1638        ON2     55      CYT    O5'   1638    -0.570000    15.9994   ; qtot -51.100
  1639       CN8B     55      CYT    C5'   1639    -0.080000    12.0110   ; qtot -51.180
  1640        HN8     55      CYT    H5'   1640     0.090000     1.0080   ; qtot -51.090
  1641        HN8     55      CYT   H5''   1641     0.090000     1.0080   ; qtot -51.000
  1642        CN7     55      CYT    C4'   1642     0.160000    12.0110   ; qtot -50.840
  1643        HN7     55      CYT    H4'   1643     0.090000     1.0080   ; qtot -50.750
  1644       ON6B     55      CYT    O4'   1644    -0.500000    15.9994   ; qtot -51.250
  1645       CN7B     55      CYT    C1'   1645     0.160000    12.0110   ; qtot -51.090
  1646        HN7     55      CYT    H1'   1646     0.090000     1.0080   ; qtot -51.000
  1647        NN2     55      CYT     N1   1647    -0.130000    14.0070   ; qtot -51.130
  1648        CN3     55      CYT     C6   1648     0.050000    12.0110   ; qtot -51.080
  1649        HN3     55      CYT     H6   1649     0.170000     1.0080   ; qtot -50.910
  1650        CN3     55      CYT     C5   1650    -0.130000    12.0110   ; qtot -51.040
  1651        HN3     55      CYT     H5   1651     0.070000     1.0080   ; qtot -50.970
  1652        CN1     55      CYT     C2   1652     0.520000    12.0110   ; qtot -50.450
  1653       ON1C     55      CYT     O2   1653    -0.490000    15.9994   ; qtot -50.940
  1654        NN3     55      CYT     N3   1654    -0.660000    14.0070   ; qtot -51.600
  1655        CN2     55      CYT     C4   1655     0.650000    12.0110   ; qtot -50.950
  1656        NN1     55      CYT     N4   1656    -0.750000    14.0070   ; qtot -51.700
  1657        HN1     55      CYT    H41   1657     0.370000     1.0080   ; qtot -51.330
  1658        HN1     55      CYT    H42   1658     0.330000     1.0080   ; qtot -51.000
  1659       CN7B     55      CYT    C2'   1659     0.140000    12.0110   ; qtot -50.860
  1660        HN7     55      CYT   H2''   1660     0.090000     1.0080   ; qtot -50.770
  1661        ON5     55      CYT    O2'   1661    -0.660000    15.9994   ; qtot -51.430
  1662        HN5     55      CYT    H2'   1662     0.430000     1.0080   ; qtot -51.000
  1663        CN7     55      CYT    C3'   1663     0.010000    12.0110   ; qtot -50.990
  1664        HN7     55      CYT    H3'   1664     0.090000     1.0080   ; qtot -50.900
  1665        ON2     55      CYT    O3'   1665    -0.570000    15.9994   ; qtot -51.470
  1666          P     56      ADE      P   1666     1.500000    30.9740   ; qtot -49.970
  1667        ON3     56      ADE    O1P   1667    -0.780000    15.9994   ; qtot -50.750
  1668        ON3     56      ADE    O2P   1668    -0.780000    15.9994   ; qtot -51.530
  1669        ON2     56      ADE    O5'   1669    -0.570000    15.9994   ; qtot -52.100
  1670       CN8B     56      ADE    C5'   1670    -0.080000    12.0110   ; qtot -52.180
  1671        HN8     56      ADE    H5'   1671     0.090000     1.0080   ; qtot -52.090
  1672        HN8     56      ADE   H5''   1672     0.090000     1.0080   ; qtot -52.000
  1673        CN7     56      ADE    C4'   1673     0.160000    12.0110   ; qtot -51.840
  1674        HN7     56      ADE    H4'   1674     0.090000     1.0080   ; qtot -51.750
  1675       ON6B     56      ADE    O4'   1675    -0.500000    15.9994   ; qtot -52.250
  1676       CN7B     56      ADE    C1'   1676     0.160000    12.0110   ; qtot -52.090
  1677        HN7     56      ADE    H1'   1677     0.090000     1.0080   ; qtot -52.000
  1678        NN2     56      ADE     N9   1678    -0.050000    14.0070   ; qtot -52.050
  1679        CN5     56      ADE     C5   1679     0.280000    12.0110   ; qtot -51.770
  1680        NN4     56      ADE     N7   1680    -0.710000    14.0070   ; qtot -52.480
  1681        CN4     56      ADE     C8   1681     0.340000    12.0110   ; qtot -52.140
  1682        HN3     56      ADE     H8   1682     0.120000     1.0080   ; qtot -52.020
  1683       NN3A     56      ADE     N1   1683    -0.740000    14.0070   ; qtot -52.760
  1684        CN4     56      ADE     C2   1684     0.500000    12.0110   ; qtot -52.260
  1685        HN3     56      ADE     H2   1685     0.130000     1.0080   ; qtot -52.130
  1686       NN3A     56      ADE     N3   1686    -0.750000    14.0070   ; qtot -52.880
  1687        CN5     56      ADE     C4   1687     0.430000    12.0110   ; qtot -52.450
  1688        CN2     56      ADE     C6   1688     0.460000    12.0110   ; qtot -51.990
  1689        NN1     56      ADE     N6   1689    -0.770000    14.0070   ; qtot -52.760
  1690        HN1     56      ADE    H61   1690     0.380000     1.0080   ; qtot -52.380
  1691        HN1     56      ADE    H62   1691     0.380000     1.0080   ; qtot -52.000
  1692       CN7B     56      ADE    C2'   1692     0.140000    12.0110   ; qtot -51.860
  1693        HN7     56      ADE   H2''   1693     0.090000     1.0080   ; qtot -51.770
  1694        ON5     56      ADE    O2'   1694    -0.660000    15.9994   ; qtot -52.430
  1695        HN5     56      ADE    H2'   1695     0.430000     1.0080   ; qtot -52.000
  1696        CN7     56      ADE    C3'   1696     0.010000    12.0110   ; qtot -51.990
  1697        HN7     56      ADE    H3'   1697     0.090000     1.0080   ; qtot -51.900
  1698        ON2     56      ADE    O3'   1698    -0.570000    15.9994   ; qtot -52.470
  1699          P     57      CYT      P   1699     1.500000    30.9740   ; qtot -50.970
  1700        ON3     57      CYT    O1P   1700    -0.780000    15.9994   ; qtot -51.750
  1701        ON3     57      CYT    O2P   1701    -0.780000    15.9994   ; qtot -52.530
  1702        ON2     57      CYT    O5'   1702    -0.570000    15.9994   ; qtot -53.100
  1703       CN8B     57      CYT    C5'   1703    -0.080000    12.0110   ; qtot -53.180
  1704        HN8     57      CYT    H5'   1704     0.090000     1.0080   ; qtot -53.090
  1705        HN8     57      CYT   H5''   1705     0.090000     1.0080   ; qtot -53.000
  1706        CN7     57      CYT    C4'   1706     0.160000    12.0110   ; qtot -52.840
  1707        HN7     57      CYT    H4'   1707     0.090000     1.0080   ; qtot -52.750
  1708       ON6B     57      CYT    O4'   1708    -0.500000    15.9994   ; qtot -53.250
  1709       CN7B     57      CYT    C1'   1709     0.160000    12.0110   ; qtot -53.090
  1710        HN7     57      CYT    H1'   1710     0.090000     1.0080   ; qtot -53.000
  1711        NN2     57      CYT     N1   1711    -0.130000    14.0070   ; qtot -53.130
  1712        CN3     57      CYT     C6   1712     0.050000    12.0110   ; qtot -53.080
  1713        HN3     57      CYT     H6   1713     0.170000     1.0080   ; qtot -52.910
  1714        CN3     57      CYT     C5   1714    -0.130000    12.0110   ; qtot -53.040
  1715        HN3     57      CYT     H5   1715     0.070000     1.0080   ; qtot -52.970
  1716        CN1     57      CYT     C2   1716     0.520000    12.0110   ; qtot -52.450
  1717       ON1C     57      CYT     O2   1717    -0.490000    15.9994   ; qtot -52.940
  1718        NN3     57      CYT     N3   1718    -0.660000    14.0070   ; qtot -53.600
  1719        CN2     57      CYT     C4   1719     0.650000    12.0110   ; qtot -52.950
  1720        NN1     57      CYT     N4   1720    -0.750000    14.0070   ; qtot -53.700
  1721        HN1     57      CYT    H41   1721     0.370000     1.0080   ; qtot -53.330
  1722        HN1     57      CYT    H42   1722     0.330000     1.0080   ; qtot -53.000
  1723       CN7B     57      CYT    C2'   1723     0.140000    12.0110   ; qtot -52.860
  1724        HN7     57      CYT   H2''   1724     0.090000     1.0080   ; qtot -52.770
  1725        ON5     57      CYT    O2'   1725    -0.660000    15.9994   ; qtot -53.430
  1726        HN5     57      CYT    H2'   1726     0.430000     1.0080   ; qtot -53.000
  1727        CN7     57      CYT    C3'   1727     0.010000    12.0110   ; qtot -52.990
  1728        HN7     57      CYT    H3'   1728     0.090000     1.0080   ; qtot -52.900
  1729        ON2     57      CYT    O3'   1729    -0.570000    15.9994   ; qtot -53.470
  1730          P     58      CYT      P   1730     1.500000    30.9740   ; qtot -51.970
  1731        ON3     58      CYT    O1P   1731    -0.780000    15.9994   ; qtot -52.750
  1732        ON3     58      CYT    O2P   1732    -0.780000    15.9994   ; qtot -53.530
  1733        ON2     58      CYT    O5'   1733    -0.570000    15.9994   ; qtot -54.100
  1734       CN8B     58      CYT    C5'   1734    -0.080000    12.0110   ; qtot -54.180
  1735        HN8     58      CYT    H5'   1735     0.090000     1.0080   ; qtot -54.090
  1736        HN8     58      CYT   H5''   1736     0.090000     1.0080   ; qtot -54.000
  1737        CN7     58      CYT    C4'   1737     0.160000    12.0110   ; qtot -53.840
  1738        HN7     58      CYT    H4'   1738     0.090000     1.0080   ; qtot -53.750
  1739       ON6B     58      CYT    O4'   1739    -0.500000    15.9994   ; qtot -54.250
  1740       CN7B     58      CYT    C1'   1740     0.160000    12.0110   ; qtot -54.090
  1741        HN7     58      CYT    H1'   1741     0.090000     1.0080   ; qtot -54.000
  1742        NN2     58      CYT     N1   1742    -0.130000    14.0070   ; qtot -54.130
  1743        CN3     58      CYT     C6   1743     0.050000    12.0110   ; qtot -54.080
  1744        HN3     58      CYT     H6   1744     0.170000     1.0080   ; qtot -53.910
  1745        CN3     58      CYT     C5   1745    -0.130000    12.0110   ; qtot -54.040
  1746        HN3     58      CYT     H5   1746     0.070000     1.0080   ; qtot -53.970
  1747        CN1     58      CYT     C2   1747     0.520000    12.0110   ; qtot -53.450
  1748       ON1C     58      CYT     O2   1748    -0.490000    15.9994   ; qtot -53.940
  1749        NN3     58      CYT     N3   1749    -0.660000    14.0070   ; qtot -54.600
  1750        CN2     58      CYT     C4   1750     0.650000    12.0110   ; qtot -53.950
  1751        NN1     58      CYT     N4   1751    -0.750000    14.0070   ; qtot -54.700
  1752        HN1     58      CYT    H41   1752     0.370000     1.0080   ; qtot -54.330
  1753        HN1     58      CYT    H42   1753     0.330000     1.0080   ; qtot -54.000
  1754       CN7B     58      CYT    C2'   1754     0.140000    12.0110   ; qtot -53.860
  1755        HN7     58      CYT   H2''   1755     0.090000     1.0080   ; qtot -53.770
  1756        ON5     58      CYT    O2'   1756    -0.660000    15.9994   ; qtot -54.430
  1757        HN5     58      CYT    H2'   1757     0.430000     1.0080   ; qtot -54.000
  1758        CN7     58      CYT    C3'   1758     0.010000    12.0110   ; qtot -53.990
  1759        HN7     58      CYT    H3'   1759     0.090000     1.0080   ; qtot -53.900
  1760        ON2     58      CYT    O3'   1760    -0.570000    15.9994   ; qtot -54.470
  1761          P     59      URA      P   1761     1.500000    30.9740   ; qtot -52.970
  1762        ON3     59      URA    O1P   1762    -0.780000    15.9994   ; qtot -53.750
  1763        ON3     59      URA    O2P   1763    -0.780000    15.9994   ; qtot -54.530
  1764        ON2     59      URA    O5'   1764    -0.570000    15.9994   ; qtot -55.100
  1765       CN8B     59      URA    C5'   1765    -0.080000    12.0110   ; qtot -55.180
  1766        HN8     59      URA    H5'   1766     0.090000     1.0080   ; qtot -55.090
  1767        HN8     59      URA   H5''   1767     0.090000     1.0080   ; qtot -55.000
  1768        CN7     59      URA    C4'   1768     0.160000    12.0110   ; qtot -54.840
  1769        HN7     59      URA    H4'   1769     0.090000     1.0080   ; qtot -54.750
  1770       ON6B     59      URA    O4'   1770    -0.500000    15.9994   ; qtot -55.250
  1771       CN7B     59      URA    C1'   1771     0.160000    12.0110   ; qtot -55.090
  1772        HN7     59      URA    H1'   1772     0.090000     1.0080   ; qtot -55.000
  1773       NN2B     59      URA     N1   1773    -0.340000    14.0070   ; qtot -55.340
  1774        CN3     59      URA     C6   1774     0.200000    12.0110   ; qtot -55.140
  1775        HN3     59      URA     H6   1775     0.140000     1.0080   ; qtot -55.000
  1776       CN1T     59      URA     C2   1776     0.550000    12.0110   ; qtot -54.450
  1777        ON1     59      URA     O2   1777    -0.450000    15.9994   ; qtot -54.900
  1778       NN2U     59      URA     N3   1778    -0.460000    14.0070   ; qtot -55.360
  1779        HN2     59      URA     H3   1779     0.360000     1.0080   ; qtot -55.000
  1780        CN1     59      URA     C4   1780     0.530000    12.0110   ; qtot -54.470
  1781        ON1     59      URA     O4   1781    -0.480000    15.9994   ; qtot -54.950
  1782        CN3     59      URA     C5   1782    -0.150000    12.0110   ; qtot -55.100
  1783        HN3     59      URA     H5   1783     0.100000     1.0080   ; qtot -55.000
  1784       CN7B     59      URA    C2'   1784     0.140000    12.0110   ; qtot -54.860
  1785        HN7     59      URA   H2''   1785     0.090000     1.0080   ; qtot -54.770
  1786        ON5     59      URA    O2'   1786    -0.660000    15.9994   ; qtot -55.430
  1787        HN5     59      URA    H2'   1787     0.430000     1.0080   ; qtot -55.000
  1788        CN7     59      URA    C3'   1788     0.010000    12.0110   ; qtot -54.990
  1789        HN7     59      URA    H3'   1789     0.090000     1.0080   ; qtot -54.900
  1790        ON2     59      URA    O3'   1790    -0.570000    15.9994   ; qtot -55.470
  1791          P     60      GUA      P   1791     1.500000    30.9740   ; qtot -53.970
  1792        ON3     60      GUA    O1P   1792    -0.780000    15.9994   ; qtot -54.750
  1793        ON3     60      GUA    O2P   1793    -0.780000    15.9994   ; qtot -55.530
  1794        ON2     60      GUA    O5'   1794    -0.570000    15.9994   ; qtot -56.100
  1795       CN8B     60      GUA    C5'   1795    -0.080000    12.0110   ; qtot -56.180
  1796        HN8     60      GUA    H5'   1796     0.090000     1.0080   ; qtot -56.090
  1797        HN8     60      GUA   H5''   1797     0.090000     1.0080   ; qtot -56.000
  1798        CN7     60      GUA    C4'   1798     0.160000    12.0110   ; qtot -55.840
  1799        HN7     60      GUA    H4'   1799     0.090000     1.0080   ; qtot -55.750
  1800       ON6B     60      GUA    O4'   1800    -0.500000    15.9994   ; qtot -56.250
  1801       CN7B     60      GUA    C1'   1801     0.160000    12.0110   ; qtot -56.090
  1802        HN7     60      GUA    H1'   1802     0.090000     1.0080   ; qtot -56.000
  1803       NN2B     60      GUA     N9   1803    -0.020000    14.0070   ; qtot -56.020
  1804        CN5     60      GUA     C4   1804     0.260000    12.0110   ; qtot -55.760
  1805        NN1     60      GUA     N2   1805    -0.680000    14.0070   ; qtot -56.440
  1806        HN1     60      GUA    H21   1806     0.320000     1.0080   ; qtot -56.120
  1807        HN1     60      GUA    H22   1807     0.350000     1.0080   ; qtot -55.770
  1808       NN3G     60      GUA     N3   1808    -0.740000    14.0070   ; qtot -56.510
  1809        CN2     60      GUA     C2   1809     0.750000    12.0110   ; qtot -55.760
  1810       NN2G     60      GUA     N1   1810    -0.340000    14.0070   ; qtot -56.100
  1811        HN2     60      GUA     H1   1811     0.260000     1.0080   ; qtot -55.840
  1812        CN1     60      GUA     C6   1812     0.540000    12.0110   ; qtot -55.300
  1813        ON1     60      GUA     O6   1813    -0.510000    15.9994   ; qtot -55.810
  1814       CN5G     60      GUA     C5   1814     0.000000    12.0110   ; qtot -55.810
  1815        NN4     60      GUA     N7   1815    -0.600000    14.0070   ; qtot -56.410
  1816        CN4     60      GUA     C8   1816     0.250000    12.0110   ; qtot -56.160
  1817        HN3     60      GUA     H8   1817     0.160000     1.0080   ; qtot -56.000
  1818       CN7B     60      GUA    C2'   1818     0.140000    12.0110   ; qtot -55.860
  1819        HN7     60      GUA   H2''   1819     0.090000     1.0080   ; qtot -55.770
  1820        ON5     60      GUA    O2'   1820    -0.660000    15.9994   ; qtot -56.430
  1821        HN5     60      GUA    H2'   1821     0.430000     1.0080   ; qtot -56.000
  1822        CN7     60      GUA    C3'   1822     0.010000    12.0110   ; qtot -55.990
  1823        HN7     60      GUA    H3'   1823     0.090000     1.0080   ; qtot -55.900
  1824        ON2     60      GUA    O3'   1824    -0.570000    15.9994   ; qtot -56.470
  1825          P     61      ADE      P   1825     1.500000    30.9740   ; qtot -54.970
  1826        ON3     61      ADE    O1P   1826    -0.780000    15.9994   ; qtot -55.750
  1827        ON3     61      ADE    O2P   1827    -0.780000    15.9994   ; qtot -56.530
  1828        ON2     61      ADE    O5'   1828    -0.570000    15.9994   ; qtot -57.100
  1829       CN8B     61      ADE    C5'   1829    -0.080000    12.0110   ; qtot -57.180
  1830        HN8     61      ADE    H5'   1830     0.090000     1.0080   ; qtot -57.090
  1831        HN8     61      ADE   H5''   1831     0.090000     1.0080   ; qtot -57.000
  1832        CN7     61      ADE    C4'   1832     0.160000    12.0110   ; qtot -56.840
  1833        HN7     61      ADE    H4'   1833     0.090000     1.0080   ; qtot -56.750
  1834       ON6B     61      ADE    O4'   1834    -0.500000    15.9994   ; qtot -57.250
  1835       CN7B     61      ADE    C1'   1835     0.160000    12.0110   ; qtot -57.090
  1836        HN7     61      ADE    H1'   1836     0.090000     1.0080   ; qtot -57.000
  1837        NN2     61      ADE     N9   1837    -0.050000    14.0070   ; qtot -57.050
  1838        CN5     61      ADE     C5   1838     0.280000    12.0110   ; qtot -56.770
  1839        NN4     61      ADE     N7   1839    -0.710000    14.0070   ; qtot -57.480
  1840        CN4     61      ADE     C8   1840     0.340000    12.0110   ; qtot -57.140
  1841        HN3     61      ADE     H8   1841     0.120000     1.0080   ; qtot -57.020
  1842       NN3A     61      ADE     N1   1842    -0.740000    14.0070   ; qtot -57.760
  1843        CN4     61      ADE     C2   1843     0.500000    12.0110   ; qtot -57.260
  1844        HN3     61      ADE     H2   1844     0.130000     1.0080   ; qtot -57.130
  1845       NN3A     61      ADE     N3   1845    -0.750000    14.0070   ; qtot -57.880
  1846        CN5     61      ADE     C4   1846     0.430000    12.0110   ; qtot -57.450
  1847        CN2     61      ADE     C6   1847     0.460000    12.0110   ; qtot -56.990
  1848        NN1     61      ADE     N6   1848    -0.770000    14.0070   ; qtot -57.760
  1849        HN1     61      ADE    H61   1849     0.380000     1.0080   ; qtot -57.380
  1850        HN1     61      ADE    H62   1850     0.380000     1.0080   ; qtot -57.000
  1851       CN7B     61      ADE    C2'   1851     0.140000    12.0110   ; qtot -56.860
  1852        HN7     61      ADE   H2''   1852     0.090000     1.0080   ; qtot -56.770
  1853        ON5     61      ADE    O2'   1853    -0.660000    15.9994   ; qtot -57.430
  1854        HN5     61      ADE    H2'   1854     0.430000     1.0080   ; qtot -57.000
  1855        CN7     61      ADE    C3'   1855     0.010000    12.0110   ; qtot -56.990
  1856        HN7     61      ADE    H3'   1856     0.090000     1.0080   ; qtot -56.900
  1857        ON2     61      ADE    O3'   1857    -0.570000    15.9994   ; qtot -57.470
  1858          P     62      URA      P   1858     1.500000    30.9740   ; qtot -55.970
  1859        ON3     62      URA    O1P   1859    -0.780000    15.9994   ; qtot -56.750
  1860        ON3     62      URA    O2P   1860    -0.780000    15.9994   ; qtot -57.530
  1861        ON2     62      URA    O5'   1861    -0.570000    15.9994   ; qtot -58.100
  1862       CN8B     62      URA    C5'   1862    -0.080000    12.0110   ; qtot -58.180
  1863        HN8     62      URA    H5'   1863     0.090000     1.0080   ; qtot -58.090
  1864        HN8     62      URA   H5''   1864     0.090000     1.0080   ; qtot -58.000
  1865        CN7     62      URA    C4'   1865     0.160000    12.0110   ; qtot -57.840
  1866        HN7     62      URA    H4'   1866     0.090000     1.0080   ; qtot -57.750
  1867       ON6B     62      URA    O4'   1867    -0.500000    15.9994   ; qtot -58.250
  1868       CN7B     62      URA    C1'   1868     0.160000    12.0110   ; qtot -58.090
  1869        HN7     62      URA    H1'   1869     0.090000     1.0080   ; qtot -58.000
  1870       NN2B     62      URA     N1   1870    -0.340000    14.0070   ; qtot -58.340
  1871        CN3     62      URA     C6   1871     0.200000    12.0110   ; qtot -58.140
  1872        HN3     62      URA     H6   1872     0.140000     1.0080   ; qtot -58.000
  1873       CN1T     62      URA     C2   1873     0.550000    12.0110   ; qtot -57.450
  1874        ON1     62      URA     O2   1874    -0.450000    15.9994   ; qtot -57.900
  1875       NN2U     62      URA     N3   1875    -0.460000    14.0070   ; qtot -58.360
  1876        HN2     62      URA     H3   1876     0.360000     1.0080   ; qtot -58.000
  1877        CN1     62      URA     C4   1877     0.530000    12.0110   ; qtot -57.470
  1878        ON1     62      URA     O4   1878    -0.480000    15.9994   ; qtot -57.950
  1879        CN3     62      URA     C5   1879    -0.150000    12.0110   ; qtot -58.100
  1880        HN3     62      URA     H5   1880     0.100000     1.0080   ; qtot -58.000
  1881       CN7B     62      URA    C2'   1881     0.140000    12.0110   ; qtot -57.860
  1882        HN7     62      URA   H2''   1882     0.090000     1.0080   ; qtot -57.770
  1883        ON5     62      URA    O2'   1883    -0.660000    15.9994   ; qtot -58.430
  1884        HN5     62      URA    H2'   1884     0.430000     1.0080   ; qtot -58.000
  1885        CN7     62      URA    C3'   1885     0.010000    12.0110   ; qtot -57.990
  1886        HN7     62      URA    H3'   1886     0.090000     1.0080   ; qtot -57.900
  1887        ON2     62      URA    O3'   1887    -0.570000    15.9994   ; qtot -58.470
  1888          P     63      CYT      P   1888     1.500000    30.9740   ; qtot -56.970
  1889        ON3     63      CYT    O1P   1889    -0.780000    15.9994   ; qtot -57.750
  1890        ON3     63      CYT    O2P   1890    -0.780000    15.9994   ; qtot -58.530
  1891        ON2     63      CYT    O5'   1891    -0.570000    15.9994   ; qtot -59.100
  1892       CN8B     63      CYT    C5'   1892    -0.080000    12.0110   ; qtot -59.180
  1893        HN8     63      CYT    H5'   1893     0.090000     1.0080   ; qtot -59.090
  1894        HN8     63      CYT   H5''   1894     0.090000     1.0080   ; qtot -59.000
  1895        CN7     63      CYT    C4'   1895     0.160000    12.0110   ; qtot -58.840
  1896        HN7     63      CYT    H4'   1896     0.090000     1.0080   ; qtot -58.750
  1897       ON6B     63      CYT    O4'   1897    -0.500000    15.9994   ; qtot -59.250
  1898       CN7B     63      CYT    C1'   1898     0.160000    12.0110   ; qtot -59.090
  1899        HN7     63      CYT    H1'   1899     0.090000     1.0080   ; qtot -59.000
  1900        NN2     63      CYT     N1   1900    -0.130000    14.0070   ; qtot -59.130
  1901        CN3     63      CYT     C6   1901     0.050000    12.0110   ; qtot -59.080
  1902        HN3     63      CYT     H6   1902     0.170000     1.0080   ; qtot -58.910
  1903        CN3     63      CYT     C5   1903    -0.130000    12.0110   ; qtot -59.040
  1904        HN3     63      CYT     H5   1904     0.070000     1.0080   ; qtot -58.970
  1905        CN1     63      CYT     C2   1905     0.520000    12.0110   ; qtot -58.450
  1906       ON1C     63      CYT     O2   1906    -0.490000    15.9994   ; qtot -58.940
  1907        NN3     63      CYT     N3   1907    -0.660000    14.0070   ; qtot -59.600
  1908        CN2     63      CYT     C4   1908     0.650000    12.0110   ; qtot -58.950
  1909        NN1     63      CYT     N4   1909    -0.750000    14.0070   ; qtot -59.700
  1910        HN1     63      CYT    H41   1910     0.370000     1.0080   ; qtot -59.330
  1911        HN1     63      CYT    H42   1911     0.330000     1.0080   ; qtot -59.000
  1912       CN7B     63      CYT    C2'   1912     0.140000    12.0110   ; qtot -58.860
  1913        HN7     63      CYT   H2''   1913     0.090000     1.0080   ; qtot -58.770
  1914        ON5     63      CYT    O2'   1914    -0.660000    15.9994   ; qtot -59.430
  1915        HN5     63      CYT    H2'   1915     0.430000     1.0080   ; qtot -59.000
  1916        CN7     63      CYT    C3'   1916     0.010000    12.0110   ; qtot -58.990
  1917        HN7     63      CYT    H3'   1917     0.090000     1.0080   ; qtot -58.900
  1918        ON2     63      CYT    O3'   1918    -0.570000    15.9994   ; qtot -59.470
  1919          P     64      URA      P   1919     1.500000    30.9740   ; qtot -57.970
  1920        ON3     64      URA    O1P   1920    -0.780000    15.9994   ; qtot -58.750
  1921        ON3     64      URA    O2P   1921    -0.780000    15.9994   ; qtot -59.530
  1922        ON2     64      URA    O5'   1922    -0.570000    15.9994   ; qtot -60.100
  1923       CN8B     64      URA    C5'   1923    -0.080000    12.0110   ; qtot -60.180
  1924        HN8     64      URA    H5'   1924     0.090000     1.0080   ; qtot -60.090
  1925        HN8     64      URA   H5''   1925     0.090000     1.0080   ; qtot -60.000
  1926        CN7     64      URA    C4'   1926     0.160000    12.0110   ; qtot -59.840
  1927        HN7     64      URA    H4'   1927     0.090000     1.0080   ; qtot -59.750
  1928       ON6B     64      URA    O4'   1928    -0.500000    15.9994   ; qtot -60.250
  1929       CN7B     64      URA    C1'   1929     0.160000    12.0110   ; qtot -60.090
  1930        HN7     64      URA    H1'   1930     0.090000     1.0080   ; qtot -60.000
  1931       NN2B     64      URA     N1   1931    -0.340000    14.0070   ; qtot -60.340
  1932        CN3     64      URA     C6   1932     0.200000    12.0110   ; qtot -60.140
  1933        HN3     64      URA     H6   1933     0.140000     1.0080   ; qtot -60.000
  1934       CN1T     64      URA     C2   1934     0.550000    12.0110   ; qtot -59.450
  1935        ON1     64      URA     O2   1935    -0.450000    15.9994   ; qtot -59.900
  1936       NN2U     64      URA     N3   1936    -0.460000    14.0070   ; qtot -60.360
  1937        HN2     64      URA     H3   1937     0.360000     1.0080   ; qtot -60.000
  1938        CN1     64      URA     C4   1938     0.530000    12.0110   ; qtot -59.470
  1939        ON1     64      URA     O4   1939    -0.480000    15.9994   ; qtot -59.950
  1940        CN3     64      URA     C5   1940    -0.150000    12.0110   ; qtot -60.100
  1941        HN3     64      URA     H5   1941     0.100000     1.0080   ; qtot -60.000
  1942       CN7B     64      URA    C2'   1942     0.140000    12.0110   ; qtot -59.860
  1943        HN7     64      URA   H2''   1943     0.090000     1.0080   ; qtot -59.770
  1944        ON5     64      URA    O2'   1944    -0.660000    15.9994   ; qtot -60.430
  1945        HN5     64      URA    H2'   1945     0.430000     1.0080   ; qtot -60.000
  1946        CN7     64      URA    C3'   1946     0.010000    12.0110   ; qtot -59.990
  1947        HN7     64      URA    H3'   1947     0.090000     1.0080   ; qtot -59.900
  1948        ON2     64      URA    O3'   1948    -0.570000    15.9994   ; qtot -60.470
  1949          P     65      GUA      P   1949     1.500000    30.9740   ; qtot -58.970
  1950        ON3     65      GUA    O1P   1950    -0.780000    15.9994   ; qtot -59.750
  1951        ON3     65      GUA    O2P   1951    -0.780000    15.9994   ; qtot -60.530
  1952        ON2     65      GUA    O5'   1952    -0.570000    15.9994   ; qtot -61.100
  1953       CN8B     65      GUA    C5'   1953    -0.080000    12.0110   ; qtot -61.180
  1954        HN8     65      GUA    H5'   1954     0.090000     1.0080   ; qtot -61.090
  1955        HN8     65      GUA   H5''   1955     0.090000     1.0080   ; qtot -61.000
  1956        CN7     65      GUA    C4'   1956     0.160000    12.0110   ; qtot -60.840
  1957        HN7     65      GUA    H4'   1957     0.090000     1.0080   ; qtot -60.750
  1958       ON6B     65      GUA    O4'   1958    -0.500000    15.9994   ; qtot -61.250
  1959       CN7B     65      GUA    C1'   1959     0.160000    12.0110   ; qtot -61.090
  1960        HN7     65      GUA    H1'   1960     0.090000     1.0080   ; qtot -61.000
  1961       NN2B     65      GUA     N9   1961    -0.020000    14.0070   ; qtot -61.020
  1962        CN5     65      GUA     C4   1962     0.260000    12.0110   ; qtot -60.760
  1963        NN1     65      GUA     N2   1963    -0.680000    14.0070   ; qtot -61.440
  1964        HN1     65      GUA    H21   1964     0.320000     1.0080   ; qtot -61.120
  1965        HN1     65      GUA    H22   1965     0.350000     1.0080   ; qtot -60.770
  1966       NN3G     65      GUA     N3   1966    -0.740000    14.0070   ; qtot -61.510
  1967        CN2     65      GUA     C2   1967     0.750000    12.0110   ; qtot -60.760
  1968       NN2G     65      GUA     N1   1968    -0.340000    14.0070   ; qtot -61.100
  1969        HN2     65      GUA     H1   1969     0.260000     1.0080   ; qtot -60.840
  1970        CN1     65      GUA     C6   1970     0.540000    12.0110   ; qtot -60.300
  1971        ON1     65      GUA     O6   1971    -0.510000    15.9994   ; qtot -60.810
  1972       CN5G     65      GUA     C5   1972     0.000000    12.0110   ; qtot -60.810
  1973        NN4     65      GUA     N7   1973    -0.600000    14.0070   ; qtot -61.410
  1974        CN4     65      GUA     C8   1974     0.250000    12.0110   ; qtot -61.160
  1975        HN3     65      GUA     H8   1975     0.160000     1.0080   ; qtot -61.000
  1976       CN7B     65      GUA    C2'   1976     0.140000    12.0110   ; qtot -60.860
  1977        HN7     65      GUA   H2''   1977     0.090000     1.0080   ; qtot -60.770
  1978        ON5     65      GUA    O2'   1978    -0.660000    15.9994   ; qtot -61.430
  1979        HN5     65      GUA    H2'   1979     0.430000     1.0080   ; qtot -61.000
  1980        CN7     65      GUA    C3'   1980     0.010000    12.0110   ; qtot -60.990
  1981        HN7     65      GUA    H3'   1981     0.090000     1.0080   ; qtot -60.900
  1982        ON2     65      GUA    O3'   1982    -0.570000    15.9994   ; qtot -61.470
  1983          P     66      GUA      P   1983     1.500000    30.9740   ; qtot -59.970
  1984        ON3     66      GUA    O1P   1984    -0.780000    15.9994   ; qtot -60.750
  1985        ON3     66      GUA    O2P   1985    -0.780000    15.9994   ; qtot -61.530
  1986        ON2     66      GUA    O5'   1986    -0.570000    15.9994   ; qtot -62.100
  1987       CN8B     66      GUA    C5'   1987    -0.080000    12.0110   ; qtot -62.180
  1988        HN8     66      GUA    H5'   1988     0.090000     1.0080   ; qtot -62.090
  1989        HN8     66      GUA   H5''   1989     0.090000     1.0080   ; qtot -62.000
  1990        CN7     66      GUA    C4'   1990     0.160000    12.0110   ; qtot -61.840
  1991        HN7     66      GUA    H4'   1991     0.090000     1.0080   ; qtot -61.750
  1992       ON6B     66      GUA    O4'   1992    -0.500000    15.9994   ; qtot -62.250
  1993       CN7B     66      GUA    C1'   1993     0.160000    12.0110   ; qtot -62.090
  1994        HN7     66      GUA    H1'   1994     0.090000     1.0080   ; qtot -62.000
  1995       NN2B     66      GUA     N9   1995    -0.020000    14.0070   ; qtot -62.020
  1996        CN5     66      GUA     C4   1996     0.260000    12.0110   ; qtot -61.760
  1997        NN1     66      GUA     N2   1997    -0.680000    14.0070   ; qtot -62.440
  1998        HN1     66      GUA    H21   1998     0.320000     1.0080   ; qtot -62.120
  1999        HN1     66      GUA    H22   1999     0.350000     1.0080   ; qtot -61.770
  2000       NN3G     66      GUA     N3   2000    -0.740000    14.0070   ; qtot -62.510
  2001        CN2     66      GUA     C2   2001     0.750000    12.0110   ; qtot -61.760
  2002       NN2G     66      GUA     N1   2002    -0.340000    14.0070   ; qtot -62.100
  2003        HN2     66      GUA     H1   2003     0.260000     1.0080   ; qtot -61.840
  2004        CN1     66      GUA     C6   2004     0.540000    12.0110   ; qtot -61.300
  2005        ON1     66      GUA     O6   2005    -0.510000    15.9994   ; qtot -61.810
  2006       CN5G     66      GUA     C5   2006     0.000000    12.0110   ; qtot -61.810
  2007        NN4     66      GUA     N7   2007    -0.600000    14.0070   ; qtot -62.410
  2008        CN4     66      GUA     C8   2008     0.250000    12.0110   ; qtot -62.160
  2009        HN3     66      GUA     H8   2009     0.160000     1.0080   ; qtot -62.000
  2010       CN7B     66      GUA    C2'   2010     0.140000    12.0110   ; qtot -61.860
  2011        HN7     66      GUA   H2''   2011     0.090000     1.0080   ; qtot -61.770
  2012        ON5     66      GUA    O2'   2012    -0.660000    15.9994   ; qtot -62.430
  2013        HN5     66      GUA    H2'   2013     0.430000     1.0080   ; qtot -62.000
  2014        CN7     66      GUA    C3'   2014     0.010000    12.0110   ; qtot -61.990
  2015        HN7     66      GUA    H3'   2015     0.090000     1.0080   ; qtot -61.900
  2016        ON2     66      GUA    O3'   2016    -0.570000    15.9994   ; qtot -62.470
  2017          P     67      ADE      P   2017     1.500000    30.9740   ; qtot -60.970
  2018        ON3     67      ADE    O1P   2018    -0.780000    15.9994   ; qtot -61.750
  2019        ON3     67      ADE    O2P   2019    -0.780000    15.9994   ; qtot -62.530
  2020        ON2     67      ADE    O5'   2020    -0.570000    15.9994   ; qtot -63.100
  2021       CN8B     67      ADE    C5'   2021    -0.080000    12.0110   ; qtot -63.180
  2022        HN8     67      ADE    H5'   2022     0.090000     1.0080   ; qtot -63.090
  2023        HN8     67      ADE   H5''   2023     0.090000     1.0080   ; qtot -63.000
  2024        CN7     67      ADE    C4'   2024     0.160000    12.0110   ; qtot -62.840
  2025        HN7     67      ADE    H4'   2025     0.090000     1.0080   ; qtot -62.750
  2026       ON6B     67      ADE    O4'   2026    -0.500000    15.9994   ; qtot -63.250
  2027       CN7B     67      ADE    C1'   2027     0.160000    12.0110   ; qtot -63.090
  2028        HN7     67      ADE    H1'   2028     0.090000     1.0080   ; qtot -63.000
  2029        NN2     67      ADE     N9   2029    -0.050000    14.0070   ; qtot -63.050
  2030        CN5     67      ADE     C5   2030     0.280000    12.0110   ; qtot -62.770
  2031        NN4     67      ADE     N7   2031    -0.710000    14.0070   ; qtot -63.480
  2032        CN4     67      ADE     C8   2032     0.340000    12.0110   ; qtot -63.140
  2033        HN3     67      ADE     H8   2033     0.120000     1.0080   ; qtot -63.020
  2034       NN3A     67      ADE     N1   2034    -0.740000    14.0070   ; qtot -63.760
  2035        CN4     67      ADE     C2   2035     0.500000    12.0110   ; qtot -63.260
  2036        HN3     67      ADE     H2   2036     0.130000     1.0080   ; qtot -63.130
  2037       NN3A     67      ADE     N3   2037    -0.750000    14.0070   ; qtot -63.880
  2038        CN5     67      ADE     C4   2038     0.430000    12.0110   ; qtot -63.450
  2039        CN2     67      ADE     C6   2039     0.460000    12.0110   ; qtot -62.990
  2040        NN1     67      ADE     N6   2040    -0.770000    14.0070   ; qtot -63.760
  2041        HN1     67      ADE    H61   2041     0.380000     1.0080   ; qtot -63.380
  2042        HN1     67      ADE    H62   2042     0.380000     1.0080   ; qtot -63.000
  2043       CN7B     67      ADE    C2'   2043     0.140000    12.0110   ; qtot -62.860
  2044        HN7     67      ADE   H2''   2044     0.090000     1.0080   ; qtot -62.770
  2045        ON5     67      ADE    O2'   2045    -0.660000    15.9994   ; qtot -63.430
  2046        HN5     67      ADE    H2'   2046     0.430000     1.0080   ; qtot -63.000
  2047        CN7     67      ADE    C3'   2047     0.010000    12.0110   ; qtot -62.990
  2048        HN7     67      ADE    H3'   2048     0.090000     1.0080   ; qtot -62.900
  2049        ON2     67      ADE    O3'   2049    -0.570000    15.9994   ; qtot -63.470
  2050          P     68      URA      P   2050     1.500000    30.9740   ; qtot -61.970
  2051        ON3     68      URA    O1P   2051    -0.780000    15.9994   ; qtot -62.750
  2052        ON3     68      URA    O2P   2052    -0.780000    15.9994   ; qtot -63.530
  2053        ON2     68      URA    O5'   2053    -0.570000    15.9994   ; qtot -64.100
  2054       CN8B     68      URA    C5'   2054    -0.080000    12.0110   ; qtot -64.180
  2055        HN8     68      URA    H5'   2055     0.090000     1.0080   ; qtot -64.090
  2056        HN8     68      URA   H5''   2056     0.090000     1.0080   ; qtot -64.000
  2057        CN7     68      URA    C4'   2057     0.160000    12.0110   ; qtot -63.840
  2058        HN7     68      URA    H4'   2058     0.090000     1.0080   ; qtot -63.750
  2059       ON6B     68      URA    O4'   2059    -0.500000    15.9994   ; qtot -64.250
  2060       CN7B     68      URA    C1'   2060     0.160000    12.0110   ; qtot -64.090
  2061        HN7     68      URA    H1'   2061     0.090000     1.0080   ; qtot -64.000
  2062       NN2B     68      URA     N1   2062    -0.340000    14.0070   ; qtot -64.340
  2063        CN3     68      URA     C6   2063     0.200000    12.0110   ; qtot -64.140
  2064        HN3     68      URA     H6   2064     0.140000     1.0080   ; qtot -64.000
  2065       CN1T     68      URA     C2   2065     0.550000    12.0110   ; qtot -63.450
  2066        ON1     68      URA     O2   2066    -0.450000    15.9994   ; qtot -63.900
  2067       NN2U     68      URA     N3   2067    -0.460000    14.0070   ; qtot -64.360
  2068        HN2     68      URA     H3   2068     0.360000     1.0080   ; qtot -64.000
  2069        CN1     68      URA     C4   2069     0.530000    12.0110   ; qtot -63.470
  2070        ON1     68      URA     O4   2070    -0.480000    15.9994   ; qtot -63.950
  2071        CN3     68      URA     C5   2071    -0.150000    12.0110   ; qtot -64.100
  2072        HN3     68      URA     H5   2072     0.100000     1.0080   ; qtot -64.000
  2073       CN7B     68      URA    C2'   2073     0.140000    12.0110   ; qtot -63.860
  2074        HN7     68      URA   H2''   2074     0.090000     1.0080   ; qtot -63.770
  2075        ON5     68      URA    O2'   2075    -0.660000    15.9994   ; qtot -64.430
  2076        HN5     68      URA    H2'   2076     0.430000     1.0080   ; qtot -64.000
  2077        CN7     68      URA    C3'   2077     0.010000    12.0110   ; qtot -63.990
  2078        HN7     68      URA    H3'   2078     0.090000     1.0080   ; qtot -63.900
  2079        ON2     68      URA    O3'   2079    -0.570000    15.9994   ; qtot -64.470
  2080          P     69      ADE      P   2080     1.500000    30.9740   ; qtot -62.970
  2081        ON3     69      ADE    O1P   2081    -0.780000    15.9994   ; qtot -63.750
  2082        ON3     69      ADE    O2P   2082    -0.780000    15.9994   ; qtot -64.530
  2083        ON2     69      ADE    O5'   2083    -0.570000    15.9994   ; qtot -65.100
  2084       CN8B     69      ADE    C5'   2084    -0.080000    12.0110   ; qtot -65.180
  2085        HN8     69      ADE    H5'   2085     0.090000     1.0080   ; qtot -65.090
  2086        HN8     69      ADE   H5''   2086     0.090000     1.0080   ; qtot -65.000
  2087        CN7     69      ADE    C4'   2087     0.160000    12.0110   ; qtot -64.840
  2088        HN7     69      ADE    H4'   2088     0.090000     1.0080   ; qtot -64.750
  2089       ON6B     69      ADE    O4'   2089    -0.500000    15.9994   ; qtot -65.250
  2090       CN7B     69      ADE    C1'   2090     0.160000    12.0110   ; qtot -65.090
  2091        HN7     69      ADE    H1'   2091     0.090000     1.0080   ; qtot -65.000
  2092        NN2     69      ADE     N9   2092    -0.050000    14.0070   ; qtot -65.050
  2093        CN5     69      ADE     C5   2093     0.280000    12.0110   ; qtot -64.770
  2094        NN4     69      ADE     N7   2094    -0.710000    14.0070   ; qtot -65.480
  2095        CN4     69      ADE     C8   2095     0.340000    12.0110   ; qtot -65.140
  2096        HN3     69      ADE     H8   2096     0.120000     1.0080   ; qtot -65.020
  2097       NN3A     69      ADE     N1   2097    -0.740000    14.0070   ; qtot -65.760
  2098        CN4     69      ADE     C2   2098     0.500000    12.0110   ; qtot -65.260
  2099        HN3     69      ADE     H2   2099     0.130000     1.0080   ; qtot -65.130
  2100       NN3A     69      ADE     N3   2100    -0.750000    14.0070   ; qtot -65.880
  2101        CN5     69      ADE     C4   2101     0.430000    12.0110   ; qtot -65.450
  2102        CN2     69      ADE     C6   2102     0.460000    12.0110   ; qtot -64.990
  2103        NN1     69      ADE     N6   2103    -0.770000    14.0070   ; qtot -65.760
  2104        HN1     69      ADE    H61   2104     0.380000     1.0080   ; qtot -65.380
  2105        HN1     69      ADE    H62   2105     0.380000     1.0080   ; qtot -65.000
  2106       CN7B     69      ADE    C2'   2106     0.140000    12.0110   ; qtot -64.860
  2107        HN7     69      ADE   H2''   2107     0.090000     1.0080   ; qtot -64.770
  2108        ON5     69      ADE    O2'   2108    -0.660000    15.9994   ; qtot -65.430
  2109        HN5     69      ADE    H2'   2109     0.430000     1.0080   ; qtot -65.000
  2110        CN7     69      ADE    C3'   2110     0.010000    12.0110   ; qtot -64.990
  2111        HN7     69      ADE    H3'   2111     0.090000     1.0080   ; qtot -64.900
  2112        ON2     69      ADE    O3'   2112    -0.570000    15.9994   ; qtot -65.470
  2113          P     70      ADE      P   2113     1.500000    30.9740   ; qtot -63.970
  2114        ON3     70      ADE    O1P   2114    -0.780000    15.9994   ; qtot -64.750
  2115        ON3     70      ADE    O2P   2115    -0.780000    15.9994   ; qtot -65.530
  2116        ON2     70      ADE    O5'   2116    -0.570000    15.9994   ; qtot -66.100
  2117       CN8B     70      ADE    C5'   2117    -0.080000    12.0110   ; qtot -66.180
  2118        HN8     70      ADE    H5'   2118     0.090000     1.0080   ; qtot -66.090
  2119        HN8     70      ADE   H5''   2119     0.090000     1.0080   ; qtot -66.000
  2120        CN7     70      ADE    C4'   2120     0.160000    12.0110   ; qtot -65.840
  2121        HN7     70      ADE    H4'   2121     0.090000     1.0080   ; qtot -65.750
  2122       ON6B     70      ADE    O4'   2122    -0.500000    15.9994   ; qtot -66.250
  2123       CN7B     70      ADE    C1'   2123     0.160000    12.0110   ; qtot -66.090
  2124        HN7     70      ADE    H1'   2124     0.090000     1.0080   ; qtot -66.000
  2125        NN2     70      ADE     N9   2125    -0.050000    14.0070   ; qtot -66.050
  2126        CN5     70      ADE     C5   2126     0.280000    12.0110   ; qtot -65.770
  2127        NN4     70      ADE     N7   2127    -0.710000    14.0070   ; qtot -66.480
  2128        CN4     70      ADE     C8   2128     0.340000    12.0110   ; qtot -66.140
  2129        HN3     70      ADE     H8   2129     0.120000     1.0080   ; qtot -66.020
  2130       NN3A     70      ADE     N1   2130    -0.740000    14.0070   ; qtot -66.760
  2131        CN4     70      ADE     C2   2131     0.500000    12.0110   ; qtot -66.260
  2132        HN3     70      ADE     H2   2132     0.130000     1.0080   ; qtot -66.130
  2133       NN3A     70      ADE     N3   2133    -0.750000    14.0070   ; qtot -66.880
  2134        CN5     70      ADE     C4   2134     0.430000    12.0110   ; qtot -66.450
  2135        CN2     70      ADE     C6   2135     0.460000    12.0110   ; qtot -65.990
  2136        NN1     70      ADE     N6   2136    -0.770000    14.0070   ; qtot -66.760
  2137        HN1     70      ADE    H61   2137     0.380000     1.0080   ; qtot -66.380
  2138        HN1     70      ADE    H62   2138     0.380000     1.0080   ; qtot -66.000
  2139       CN7B     70      ADE    C2'   2139     0.140000    12.0110   ; qtot -65.860
  2140        HN7     70      ADE   H2''   2140     0.090000     1.0080   ; qtot -65.770
  2141        ON5     70      ADE    O2'   2141    -0.660000    15.9994   ; qtot -66.430
  2142        HN5     70      ADE    H2'   2142     0.430000     1.0080   ; qtot -66.000
  2143        CN7     70      ADE    C3'   2143     0.010000    12.0110   ; qtot -65.990
  2144        HN7     70      ADE    H3'   2144     0.090000     1.0080   ; qtot -65.900
  2145        ON2     70      ADE    O3'   2145    -0.570000    15.9994   ; qtot -66.470
  2146          P     71      URA      P   2146     1.500000    30.9740   ; qtot -64.970
  2147        ON3     71      URA    O1P   2147    -0.780000    15.9994   ; qtot -65.750
  2148        ON3     71      URA    O2P   2148    -0.780000    15.9994   ; qtot -66.530
  2149        ON2     71      URA    O5'   2149    -0.570000    15.9994   ; qtot -67.100
  2150       CN8B     71      URA    C5'   2150    -0.080000    12.0110   ; qtot -67.180
  2151        HN8     71      URA    H5'   2151     0.090000     1.0080   ; qtot -67.090
  2152        HN8     71      URA   H5''   2152     0.090000     1.0080   ; qtot -67.000
  2153        CN7     71      URA    C4'   2153     0.160000    12.0110   ; qtot -66.840
  2154        HN7     71      URA    H4'   2154     0.090000     1.0080   ; qtot -66.750
  2155       ON6B     71      URA    O4'   2155    -0.500000    15.9994   ; qtot -67.250
  2156       CN7B     71      URA    C1'   2156     0.160000    12.0110   ; qtot -67.090
  2157        HN7     71      URA    H1'   2157     0.090000     1.0080   ; qtot -67.000
  2158       NN2B     71      URA     N1   2158    -0.340000    14.0070   ; qtot -67.340
  2159        CN3     71      URA     C6   2159     0.200000    12.0110   ; qtot -67.140
  2160        HN3     71      URA     H6   2160     0.140000     1.0080   ; qtot -67.000
  2161       CN1T     71      URA     C2   2161     0.550000    12.0110   ; qtot -66.450
  2162        ON1     71      URA     O2   2162    -0.450000    15.9994   ; qtot -66.900
  2163       NN2U     71      URA     N3   2163    -0.460000    14.0070   ; qtot -67.360
  2164        HN2     71      URA     H3   2164     0.360000     1.0080   ; qtot -67.000
  2165        CN1     71      URA     C4   2165     0.530000    12.0110   ; qtot -66.470
  2166        ON1     71      URA     O4   2166    -0.480000    15.9994   ; qtot -66.950
  2167        CN3     71      URA     C5   2167    -0.150000    12.0110   ; qtot -67.100
  2168        HN3     71      URA     H5   2168     0.100000     1.0080   ; qtot -67.000
  2169       CN7B     71      URA    C2'   2169     0.140000    12.0110   ; qtot -66.860
  2170        HN7     71      URA   H2''   2170     0.090000     1.0080   ; qtot -66.770
  2171        ON5     71      URA    O2'   2171    -0.660000    15.9994   ; qtot -67.430
  2172        HN5     71      URA    H2'   2172     0.430000     1.0080   ; qtot -67.000
  2173        CN7     71      URA    C3'   2173     0.010000    12.0110   ; qtot -66.990
  2174        HN7     71      URA    H3'   2174     0.090000     1.0080   ; qtot -66.900
  2175        ON2     71      URA    O3'   2175    -0.570000    15.9994   ; qtot -67.470
  2176          P     72      GUA      P   2176     1.500000    30.9740   ; qtot -65.970
  2177        ON3     72      GUA    O1P   2177    -0.780000    15.9994   ; qtot -66.750
  2178        ON3     72      GUA    O2P   2178    -0.780000    15.9994   ; qtot -67.530
  2179        ON2     72      GUA    O5'   2179    -0.570000    15.9994   ; qtot -68.100
  2180       CN8B     72      GUA    C5'   2180    -0.080000    12.0110   ; qtot -68.180
  2181        HN8     72      GUA    H5'   2181     0.090000     1.0080   ; qtot -68.090
  2182        HN8     72      GUA   H5''   2182     0.090000     1.0080   ; qtot -68.000
  2183        CN7     72      GUA    C4'   2183     0.160000    12.0110   ; qtot -67.840
  2184        HN7     72      GUA    H4'   2184     0.090000     1.0080   ; qtot -67.750
  2185       ON6B     72      GUA    O4'   2185    -0.500000    15.9994   ; qtot -68.250
  2186       CN7B     72      GUA    C1'   2186     0.160000    12.0110   ; qtot -68.090
  2187        HN7     72      GUA    H1'   2187     0.090000     1.0080   ; qtot -68.000
  2188       NN2B     72      GUA     N9   2188    -0.020000    14.0070   ; qtot -68.020
  2189        CN5     72      GUA     C4   2189     0.260000    12.0110   ; qtot -67.760
  2190        NN1     72      GUA     N2   2190    -0.680000    14.0070   ; qtot -68.440
  2191        HN1     72      GUA    H21   2191     0.320000     1.0080   ; qtot -68.120
  2192        HN1     72      GUA    H22   2192     0.350000     1.0080   ; qtot -67.770
  2193       NN3G     72      GUA     N3   2193    -0.740000    14.0070   ; qtot -68.510
  2194        CN2     72      GUA     C2   2194     0.750000    12.0110   ; qtot -67.760
  2195       NN2G     72      GUA     N1   2195    -0.340000    14.0070   ; qtot -68.100
  2196        HN2     72      GUA     H1   2196     0.260000     1.0080   ; qtot -67.840
  2197        CN1     72      GUA     C6   2197     0.540000    12.0110   ; qtot -67.300
  2198        ON1     72      GUA     O6   2198    -0.510000    15.9994   ; qtot -67.810
  2199       CN5G     72      GUA     C5   2199     0.000000    12.0110   ; qtot -67.810
  2200        NN4     72      GUA     N7   2200    -0.600000    14.0070   ; qtot -68.410
  2201        CN4     72      GUA     C8   2201     0.250000    12.0110   ; qtot -68.160
  2202        HN3     72      GUA     H8   2202     0.160000     1.0080   ; qtot -68.000
  2203       CN7B     72      GUA    C2'   2203     0.140000    12.0110   ; qtot -67.860
  2204        HN7     72      GUA   H2''   2204     0.090000     1.0080   ; qtot -67.770
  2205        ON5     72      GUA    O2'   2205    -0.660000    15.9994   ; qtot -68.430
  2206        HN5     72      GUA    H2'   2206     0.430000     1.0080   ; qtot -68.000
  2207        CN7     72      GUA    C3'   2207     0.010000    12.0110   ; qtot -67.990
  2208        HN7     72      GUA    H3'   2208     0.090000     1.0080   ; qtot -67.900
  2209        ON2     72      GUA    O3'   2209    -0.570000    15.9994   ; qtot -68.470
  2210          P     73      CYT      P   2210     1.500000    30.9740   ; qtot -66.970
  2211        ON3     73      CYT    O1P   2211    -0.780000    15.9994   ; qtot -67.750
  2212        ON3     73      CYT    O2P   2212    -0.780000    15.9994   ; qtot -68.530
  2213        ON2     73      CYT    O5'   2213    -0.570000    15.9994   ; qtot -69.100
  2214       CN8B     73      CYT    C5'   2214    -0.080000    12.0110   ; qtot -69.180
  2215        HN8     73      CYT    H5'   2215     0.090000     1.0080   ; qtot -69.090
  2216        HN8     73      CYT   H5''   2216     0.090000     1.0080   ; qtot -69.000
  2217        CN7     73      CYT    C4'   2217     0.160000    12.0110   ; qtot -68.840
  2218        HN7     73      CYT    H4'   2218     0.090000     1.0080   ; qtot -68.750
  2219       ON6B     73      CYT    O4'   2219    -0.500000    15.9994   ; qtot -69.250
  2220       CN7B     73      CYT    C1'   2220     0.160000    12.0110   ; qtot -69.090
  2221        HN7     73      CYT    H1'   2221     0.090000     1.0080   ; qtot -69.000
  2222        NN2     73      CYT     N1   2222    -0.130000    14.0070   ; qtot -69.130
  2223        CN3     73      CYT     C6   2223     0.050000    12.0110   ; qtot -69.080
  2224        HN3     73      CYT     H6   2224     0.170000     1.0080   ; qtot -68.910
  2225        CN3     73      CYT     C5   2225    -0.130000    12.0110   ; qtot -69.040
  2226        HN3     73      CYT     H5   2226     0.070000     1.0080   ; qtot -68.970
  2227        CN1     73      CYT     C2   2227     0.520000    12.0110   ; qtot -68.450
  2228       ON1C     73      CYT     O2   2228    -0.490000    15.9994   ; qtot -68.940
  2229        NN3     73      CYT     N3   2229    -0.660000    14.0070   ; qtot -69.600
  2230        CN2     73      CYT     C4   2230     0.650000    12.0110   ; qtot -68.950
  2231        NN1     73      CYT     N4   2231    -0.750000    14.0070   ; qtot -69.700
  2232        HN1     73      CYT    H41   2232     0.370000     1.0080   ; qtot -69.330
  2233        HN1     73      CYT    H42   2233     0.330000     1.0080   ; qtot -69.000
  2234       CN7B     73      CYT    C2'   2234     0.140000    12.0110   ; qtot -68.860
  2235        HN7     73      CYT   H2''   2235     0.090000     1.0080   ; qtot -68.770
  2236        ON5     73      CYT    O2'   2236    -0.660000    15.9994   ; qtot -69.430
  2237        HN5     73      CYT    H2'   2237     0.430000     1.0080   ; qtot -69.000
  2238        CN7     73      CYT    C3'   2238     0.010000    12.0110   ; qtot -68.990
  2239        HN7     73      CYT    H3'   2239     0.090000     1.0080   ; qtot -68.900
  2240        ON2     73      CYT    O3'   2240    -0.570000    15.9994   ; qtot -69.470
  2241          P     74      CYT      P   2241     1.500000    30.9740   ; qtot -67.970
  2242        ON3     74      CYT    O1P   2242    -0.780000    15.9994   ; qtot -68.750
  2243        ON3     74      CYT    O2P   2243    -0.780000    15.9994   ; qtot -69.530
  2244        ON2     74      CYT    O5'   2244    -0.570000    15.9994   ; qtot -70.100
  2245       CN8B     74      CYT    C5'   2245    -0.080000    12.0110   ; qtot -70.180
  2246        HN8     74      CYT    H5'   2246     0.090000     1.0080   ; qtot -70.090
  2247        HN8     74      CYT   H5''   2247     0.090000     1.0080   ; qtot -70.000
  2248        CN7     74      CYT    C4'   2248     0.160000    12.0110   ; qtot -69.840
  2249        HN7     74      CYT    H4'   2249     0.090000     1.0080   ; qtot -69.750
  2250       ON6B     74      CYT    O4'   2250    -0.500000    15.9994   ; qtot -70.250
  2251       CN7B     74      CYT    C1'   2251     0.160000    12.0110   ; qtot -70.090
  2252        HN7     74      CYT    H1'   2252     0.090000     1.0080   ; qtot -70.000
  2253        NN2     74      CYT     N1   2253    -0.130000    14.0070   ; qtot -70.130
  2254        CN3     74      CYT     C6   2254     0.050000    12.0110   ; qtot -70.080
  2255        HN3     74      CYT     H6   2255     0.170000     1.0080   ; qtot -69.910
  2256        CN3     74      CYT     C5   2256    -0.130000    12.0110   ; qtot -70.040
  2257        HN3     74      CYT     H5   2257     0.070000     1.0080   ; qtot -69.970
  2258        CN1     74      CYT     C2   2258     0.520000    12.0110   ; qtot -69.450
  2259       ON1C     74      CYT     O2   2259    -0.490000    15.9994   ; qtot -69.940
  2260        NN3     74      CYT     N3   2260    -0.660000    14.0070   ; qtot -70.600
  2261        CN2     74      CYT     C4   2261     0.650000    12.0110   ; qtot -69.950
  2262        NN1     74      CYT     N4   2262    -0.750000    14.0070   ; qtot -70.700
  2263        HN1     74      CYT    H41   2263     0.370000     1.0080   ; qtot -70.330
  2264        HN1     74      CYT    H42   2264     0.330000     1.0080   ; qtot -70.000
  2265       CN7B     74      CYT    C2'   2265     0.140000    12.0110   ; qtot -69.860
  2266        HN7     74      CYT   H2''   2266     0.090000     1.0080   ; qtot -69.770
  2267        ON5     74      CYT    O2'   2267    -0.660000    15.9994   ; qtot -70.430
  2268        HN5     74      CYT    H2'   2268     0.430000     1.0080   ; qtot -70.000
  2269        CN7     74      CYT    C3'   2269     0.010000    12.0110   ; qtot -69.990
  2270        HN7     74      CYT    H3'   2270     0.090000     1.0080   ; qtot -69.900
  2271        ON2     74      CYT    O3'   2271    -0.570000    15.9994   ; qtot -70.470
  2272          P     75      ADE      P   2272     1.500000    30.9740   ; qtot -68.970
  2273        ON3     75      ADE    O1P   2273    -0.780000    15.9994   ; qtot -69.750
  2274        ON3     75      ADE    O2P   2274    -0.780000    15.9994   ; qtot -70.530
  2275        ON2     75      ADE    O5'   2275    -0.570000    15.9994   ; qtot -71.100
  2276       CN8B     75      ADE    C5'   2276    -0.080000    12.0110   ; qtot -71.180
  2277        HN8     75      ADE    H5'   2277     0.090000     1.0080   ; qtot -71.090
  2278        HN8     75      ADE   H5''   2278     0.090000     1.0080   ; qtot -71.000
  2279        CN7     75      ADE    C4'   2279     0.160000    12.0110   ; qtot -70.840
  2280        HN7     75      ADE    H4'   2280     0.090000     1.0080   ; qtot -70.750
  2281       ON6B     75      ADE    O4'   2281    -0.500000    15.9994   ; qtot -71.250
  2282       CN7B     75      ADE    C1'   2282     0.160000    12.0110   ; qtot -71.090
  2283        HN7     75      ADE    H1'   2283     0.090000     1.0080   ; qtot -71.000
  2284        NN2     75      ADE     N9   2284    -0.050000    14.0070   ; qtot -71.050
  2285        CN5     75      ADE     C5   2285     0.280000    12.0110   ; qtot -70.770
  2286        NN4     75      ADE     N7   2286    -0.710000    14.0070   ; qtot -71.480
  2287        CN4     75      ADE     C8   2287     0.340000    12.0110   ; qtot -71.140
  2288        HN3     75      ADE     H8   2288     0.120000     1.0080   ; qtot -71.020
  2289       NN3A     75      ADE     N1   2289    -0.740000    14.0070   ; qtot -71.760
  2290        CN4     75      ADE     C2   2290     0.500000    12.0110   ; qtot -71.260
  2291        HN3     75      ADE     H2   2291     0.130000     1.0080   ; qtot -71.130
  2292       NN3A     75      ADE     N3   2292    -0.750000    14.0070   ; qtot -71.880
  2293        CN5     75      ADE     C4   2293     0.430000    12.0110   ; qtot -71.450
  2294        CN2     75      ADE     C6   2294     0.460000    12.0110   ; qtot -70.990
  2295        NN1     75      ADE     N6   2295    -0.770000    14.0070   ; qtot -71.760
  2296        HN1     75      ADE    H61   2296     0.380000     1.0080   ; qtot -71.380
  2297        HN1     75      ADE    H62   2297     0.380000     1.0080   ; qtot -71.000
  2298       CN7B     75      ADE    C2'   2298     0.140000    12.0110   ; qtot -70.860
  2299        HN7     75      ADE   H2''   2299     0.090000     1.0080   ; qtot -70.770
  2300        ON5     75      ADE    O2'   2300    -0.660000    15.9994   ; qtot -71.430
  2301        HN5     75      ADE    H2'   2301     0.430000     1.0080   ; qtot -71.000
  2302        CN7     75      ADE    C3'   2302     0.010000    12.0110   ; qtot -70.990
  2303        HN7     75      ADE    H3'   2303     0.090000     1.0080   ; qtot -70.900
  2304        ON2     75      ADE    O3'   2304    -0.570000    15.9994   ; qtot -71.470
  2305          P     76      GUA      P   2305     1.500000    30.9740   ; qtot -69.970
  2306        ON3     76      GUA    O1P   2306    -0.780000    15.9994   ; qtot -70.750
  2307        ON3     76      GUA    O2P   2307    -0.780000    15.9994   ; qtot -71.530
  2308        ON2     76      GUA    O5'   2308    -0.570000    15.9994   ; qtot -72.100
  2309       CN8B     76      GUA    C5'   2309    -0.080000    12.0110   ; qtot -72.180
  2310        HN8     76      GUA    H5'   2310     0.090000     1.0080   ; qtot -72.090
  2311        HN8     76      GUA   H5''   2311     0.090000     1.0080   ; qtot -72.000
  2312        CN7     76      GUA    C4'   2312     0.160000    12.0110   ; qtot -71.840
  2313        HN7     76      GUA    H4'   2313     0.090000     1.0080   ; qtot -71.750
  2314       ON6B     76      GUA    O4'   2314    -0.500000    15.9994   ; qtot -72.250
  2315       CN7B     76      GUA    C1'   2315     0.160000    12.0110   ; qtot -72.090
  2316        HN7     76      GUA    H1'   2316     0.090000     1.0080   ; qtot -72.000
  2317       NN2B     76      GUA     N9   2317    -0.020000    14.0070   ; qtot -72.020
  2318        CN5     76      GUA     C4   2318     0.260000    12.0110   ; qtot -71.760
  2319        NN1     76      GUA     N2   2319    -0.680000    14.0070   ; qtot -72.440
  2320        HN1     76      GUA    H21   2320     0.320000     1.0080   ; qtot -72.120
  2321        HN1     76      GUA    H22   2321     0.350000     1.0080   ; qtot -71.770
  2322       NN3G     76      GUA     N3   2322    -0.740000    14.0070   ; qtot -72.510
  2323        CN2     76      GUA     C2   2323     0.750000    12.0110   ; qtot -71.760
  2324       NN2G     76      GUA     N1   2324    -0.340000    14.0070   ; qtot -72.100
  2325        HN2     76      GUA     H1   2325     0.260000     1.0080   ; qtot -71.840
  2326        CN1     76      GUA     C6   2326     0.540000    12.0110   ; qtot -71.300
  2327        ON1     76      GUA     O6   2327    -0.510000    15.9994   ; qtot -71.810
  2328       CN5G     76      GUA     C5   2328     0.000000    12.0110   ; qtot -71.810
  2329        NN4     76      GUA     N7   2329    -0.600000    14.0070   ; qtot -72.410
  2330        CN4     76      GUA     C8   2330     0.250000    12.0110   ; qtot -72.160
  2331        HN3     76      GUA     H8   2331     0.160000     1.0080   ; qtot -72.000
  2332       CN7B     76      GUA    C2'   2332     0.140000    12.0110   ; qtot -71.860
  2333        HN7     76      GUA   H2''   2333     0.090000     1.0080   ; qtot -71.770
  2334        ON5     76      GUA    O2'   2334    -0.660000    15.9994   ; qtot -72.430
  2335        HN5     76      GUA    H2'   2335     0.430000     1.0080   ; qtot -72.000
  2336        CN7     76      GUA    C3'   2336     0.010000    12.0110   ; qtot -71.990
  2337        HN7     76      GUA    H3'   2337     0.090000     1.0080   ; qtot -71.900
  2338        ON2     76      GUA    O3'   2338    -0.570000    15.9994   ; qtot -72.470
  2339          P     77      CYT      P   2339     1.500000    30.9740   ; qtot -70.970
  2340        ON3     77      CYT    O1P   2340    -0.780000    15.9994   ; qtot -71.750
  2341        ON3     77      CYT    O2P   2341    -0.780000    15.9994   ; qtot -72.530
  2342        ON2     77      CYT    O5'   2342    -0.570000    15.9994   ; qtot -73.100
  2343       CN8B     77      CYT    C5'   2343    -0.080000    12.0110   ; qtot -73.180
  2344        HN8     77      CYT    H5'   2344     0.090000     1.0080   ; qtot -73.090
  2345        HN8     77      CYT   H5''   2345     0.090000     1.0080   ; qtot -73.000
  2346        CN7     77      CYT    C4'   2346     0.160000    12.0110   ; qtot -72.840
  2347        HN7     77      CYT    H4'   2347     0.090000     1.0080   ; qtot -72.750
  2348       ON6B     77      CYT    O4'   2348    -0.500000    15.9994   ; qtot -73.250
  2349       CN7B     77      CYT    C1'   2349     0.160000    12.0110   ; qtot -73.090
  2350        HN7     77      CYT    H1'   2350     0.090000     1.0080   ; qtot -73.000
  2351        NN2     77      CYT     N1   2351    -0.130000    14.0070   ; qtot -73.130
  2352        CN3     77      CYT     C6   2352     0.050000    12.0110   ; qtot -73.080
  2353        HN3     77      CYT     H6   2353     0.170000     1.0080   ; qtot -72.910
  2354        CN3     77      CYT     C5   2354    -0.130000    12.0110   ; qtot -73.040
  2355        HN3     77      CYT     H5   2355     0.070000     1.0080   ; qtot -72.970
  2356        CN1     77      CYT     C2   2356     0.520000    12.0110   ; qtot -72.450
  2357       ON1C     77      CYT     O2   2357    -0.490000    15.9994   ; qtot -72.940
  2358        NN3     77      CYT     N3   2358    -0.660000    14.0070   ; qtot -73.600
  2359        CN2     77      CYT     C4   2359     0.650000    12.0110   ; qtot -72.950
  2360        NN1     77      CYT     N4   2360    -0.750000    14.0070   ; qtot -73.700
  2361        HN1     77      CYT    H41   2361     0.370000     1.0080   ; qtot -73.330
  2362        HN1     77      CYT    H42   2362     0.330000     1.0080   ; qtot -73.000
  2363       CN7B     77      CYT    C2'   2363     0.140000    12.0110   ; qtot -72.860
  2364        HN7     77      CYT   H2''   2364     0.090000     1.0080   ; qtot -72.770
  2365        ON5     77      CYT    O2'   2365    -0.660000    15.9994   ; qtot -73.430
  2366        HN5     77      CYT    H2'   2366     0.430000     1.0080   ; qtot -73.000
  2367        CN7     77      CYT    C3'   2367     0.010000    12.0110   ; qtot -72.990
  2368        HN7     77      CYT    H3'   2368     0.090000     1.0080   ; qtot -72.900
  2369        ON2     77      CYT    O3'   2369    -0.570000    15.9994   ; qtot -73.470
  2370          P     78      GUA      P   2370     1.500000    30.9740   ; qtot -71.970
  2371        ON3     78      GUA    O1P   2371    -0.780000    15.9994   ; qtot -72.750
  2372        ON3     78      GUA    O2P   2372    -0.780000    15.9994   ; qtot -73.530
  2373        ON2     78      GUA    O5'   2373    -0.570000    15.9994   ; qtot -74.100
  2374       CN8B     78      GUA    C5'   2374    -0.080000    12.0110   ; qtot -74.180
  2375        HN8     78      GUA    H5'   2375     0.090000     1.0080   ; qtot -74.090
  2376        HN8     78      GUA   H5''   2376     0.090000     1.0080   ; qtot -74.000
  2377        CN7     78      GUA    C4'   2377     0.160000    12.0110   ; qtot -73.840
  2378        HN7     78      GUA    H4'   2378     0.090000     1.0080   ; qtot -73.750
  2379       ON6B     78      GUA    O4'   2379    -0.500000    15.9994   ; qtot -74.250
  2380       CN7B     78      GUA    C1'   2380     0.160000    12.0110   ; qtot -74.090
  2381        HN7     78      GUA    H1'   2381     0.090000     1.0080   ; qtot -74.000
  2382       NN2B     78      GUA     N9   2382    -0.020000    14.0070   ; qtot -74.020
  2383        CN5     78      GUA     C4   2383     0.260000    12.0110   ; qtot -73.760
  2384        NN1     78      GUA     N2   2384    -0.680000    14.0070   ; qtot -74.440
  2385        HN1     78      GUA    H21   2385     0.320000     1.0080   ; qtot -74.120
  2386        HN1     78      GUA    H22   2386     0.350000     1.0080   ; qtot -73.770
  2387       NN3G     78      GUA     N3   2387    -0.740000    14.0070   ; qtot -74.510
  2388        CN2     78      GUA     C2   2388     0.750000    12.0110   ; qtot -73.760
  2389       NN2G     78      GUA     N1   2389    -0.340000    14.0070   ; qtot -74.100
  2390        HN2     78      GUA     H1   2390     0.260000     1.0080   ; qtot -73.840
  2391        CN1     78      GUA     C6   2391     0.540000    12.0110   ; qtot -73.300
  2392        ON1     78      GUA     O6   2392    -0.510000    15.9994   ; qtot -73.810
  2393       CN5G     78      GUA     C5   2393     0.000000    12.0110   ; qtot -73.810
  2394        NN4     78      GUA     N7   2394    -0.600000    14.0070   ; qtot -74.410
  2395        CN4     78      GUA     C8   2395     0.250000    12.0110   ; qtot -74.160
  2396        HN3     78      GUA     H8   2396     0.160000     1.0080   ; qtot -74.000
  2397       CN7B     78      GUA    C2'   2397     0.140000    12.0110   ; qtot -73.860
  2398        HN7     78      GUA   H2''   2398     0.090000     1.0080   ; qtot -73.770
  2399        ON5     78      GUA    O2'   2399    -0.660000    15.9994   ; qtot -74.430
  2400        HN5     78      GUA    H2'   2400     0.430000     1.0080   ; qtot -74.000
  2401        CN7     78      GUA    C3'   2401     0.010000    12.0110   ; qtot -73.990
  2402        HN7     78      GUA    H3'   2402     0.090000     1.0080   ; qtot -73.900
  2403        ON2     78      GUA    O3'   2403    -0.570000    15.9994   ; qtot -74.470
  2404          P     79      URA      P   2404     1.500000    30.9740   ; qtot -72.970
  2405        ON3     79      URA    O1P   2405    -0.780000    15.9994   ; qtot -73.750
  2406        ON3     79      URA    O2P   2406    -0.780000    15.9994   ; qtot -74.530
  2407        ON2     79      URA    O5'   2407    -0.570000    15.9994   ; qtot -75.100
  2408       CN8B     79      URA    C5'   2408    -0.080000    12.0110   ; qtot -75.180
  2409        HN8     79      URA    H5'   2409     0.090000     1.0080   ; qtot -75.090
  2410        HN8     79      URA   H5''   2410     0.090000     1.0080   ; qtot -75.000
  2411        CN7     79      URA    C4'   2411     0.160000    12.0110   ; qtot -74.840
  2412        HN7     79      URA    H4'   2412     0.090000     1.0080   ; qtot -74.750
  2413       ON6B     79      URA    O4'   2413    -0.500000    15.9994   ; qtot -75.250
  2414       CN7B     79      URA    C1'   2414     0.160000    12.0110   ; qtot -75.090
  2415        HN7     79      URA    H1'   2415     0.090000     1.0080   ; qtot -75.000
  2416       NN2B     79      URA     N1   2416    -0.340000    14.0070   ; qtot -75.340
  2417        CN3     79      URA     C6   2417     0.200000    12.0110   ; qtot -75.140
  2418        HN3     79      URA     H6   2418     0.140000     1.0080   ; qtot -75.000
  2419       CN1T     79      URA     C2   2419     0.550000    12.0110   ; qtot -74.450
  2420        ON1     79      URA     O2   2420    -0.450000    15.9994   ; qtot -74.900
  2421       NN2U     79      URA     N3   2421    -0.460000    14.0070   ; qtot -75.360
  2422        HN2     79      URA     H3   2422     0.360000     1.0080   ; qtot -75.000
  2423        CN1     79      URA     C4   2423     0.530000    12.0110   ; qtot -74.470
  2424        ON1     79      URA     O4   2424    -0.480000    15.9994   ; qtot -74.950
  2425        CN3     79      URA     C5   2425    -0.150000    12.0110   ; qtot -75.100
  2426        HN3     79      URA     H5   2426     0.100000     1.0080   ; qtot -75.000
  2427       CN7B     79      URA    C2'   2427     0.140000    12.0110   ; qtot -74.860
  2428        HN7     79      URA   H2''   2428     0.090000     1.0080   ; qtot -74.770
  2429        ON5     79      URA    O2'   2429    -0.660000    15.9994   ; qtot -75.430
  2430        HN5     79      URA    H2'   2430     0.430000     1.0080   ; qtot -75.000
  2431        CN7     79      URA    C3'   2431     0.010000    12.0110   ; qtot -74.990
  2432        HN7     79      URA    H3'   2432     0.090000     1.0080   ; qtot -74.900
  2433        ON2     79      URA    O3'   2433    -0.570000    15.9994   ; qtot -75.470
  2434          P     80      ADE      P   2434     1.500000    30.9740   ; qtot -73.970
  2435        ON3     80      ADE    O1P   2435    -0.780000    15.9994   ; qtot -74.750
  2436        ON3     80      ADE    O2P   2436    -0.780000    15.9994   ; qtot -75.530
  2437        ON2     80      ADE    O5'   2437    -0.570000    15.9994   ; qtot -76.100
  2438       CN8B     80      ADE    C5'   2438    -0.080000    12.0110   ; qtot -76.180
  2439        HN8     80      ADE    H5'   2439     0.090000     1.0080   ; qtot -76.090
  2440        HN8     80      ADE   H5''   2440     0.090000     1.0080   ; qtot -76.000
  2441        CN7     80      ADE    C4'   2441     0.160000    12.0110   ; qtot -75.840
  2442        HN7     80      ADE    H4'   2442     0.090000     1.0080   ; qtot -75.750
  2443       ON6B     80      ADE    O4'   2443    -0.500000    15.9994   ; qtot -76.250
  2444       CN7B     80      ADE    C1'   2444     0.160000    12.0110   ; qtot -76.090
  2445        HN7     80      ADE    H1'   2445     0.090000     1.0080   ; qtot -76.000
  2446        NN2     80      ADE     N9   2446    -0.050000    14.0070   ; qtot -76.050
  2447        CN5     80      ADE     C5   2447     0.280000    12.0110   ; qtot -75.770
  2448        NN4     80      ADE     N7   2448    -0.710000    14.0070   ; qtot -76.480
  2449        CN4     80      ADE     C8   2449     0.340000    12.0110   ; qtot -76.140
  2450        HN3     80      ADE     H8   2450     0.120000     1.0080   ; qtot -76.020
  2451       NN3A     80      ADE     N1   2451    -0.740000    14.0070   ; qtot -76.760
  2452        CN4     80      ADE     C2   2452     0.500000    12.0110   ; qtot -76.260
  2453        HN3     80      ADE     H2   2453     0.130000     1.0080   ; qtot -76.130
  2454       NN3A     80      ADE     N3   2454    -0.750000    14.0070   ; qtot -76.880
  2455        CN5     80      ADE     C4   2455     0.430000    12.0110   ; qtot -76.450
  2456        CN2     80      ADE     C6   2456     0.460000    12.0110   ; qtot -75.990
  2457        NN1     80      ADE     N6   2457    -0.770000    14.0070   ; qtot -76.760
  2458        HN1     80      ADE    H61   2458     0.380000     1.0080   ; qtot -76.380
  2459        HN1     80      ADE    H62   2459     0.380000     1.0080   ; qtot -76.000
  2460       CN7B     80      ADE    C2'   2460     0.140000    12.0110   ; qtot -75.860
  2461        HN7     80      ADE   H2''   2461     0.090000     1.0080   ; qtot -75.770
  2462        ON5     80      ADE    O2'   2462    -0.660000    15.9994   ; qtot -76.430
  2463        HN5     80      ADE    H2'   2463     0.430000     1.0080   ; qtot -76.000
  2464        CN7     80      ADE    C3'   2464     0.010000    12.0110   ; qtot -75.990
  2465        HN7     80      ADE    H3'   2465     0.090000     1.0080   ; qtot -75.900
  2466        ON2     80      ADE    O3'   2466    -0.570000    15.9994   ; qtot -76.470
  2467          P     81      GUA      P   2467     1.500000    30.9740   ; qtot -74.970
  2468        ON3     81      GUA    O1P   2468    -0.780000    15.9994   ; qtot -75.750
  2469        ON3     81      GUA    O2P   2469    -0.780000    15.9994   ; qtot -76.530
  2470        ON2     81      GUA    O5'   2470    -0.570000    15.9994   ; qtot -77.100
  2471       CN8B     81      GUA    C5'   2471    -0.080000    12.0110   ; qtot -77.180
  2472        HN8     81      GUA    H5'   2472     0.090000     1.0080   ; qtot -77.090
  2473        HN8     81      GUA   H5''   2473     0.090000     1.0080   ; qtot -77.000
  2474        CN7     81      GUA    C4'   2474     0.160000    12.0110   ; qtot -76.840
  2475        HN7     81      GUA    H4'   2475     0.090000     1.0080   ; qtot -76.750
  2476       ON6B     81      GUA    O4'   2476    -0.500000    15.9994   ; qtot -77.250
  2477       CN7B     81      GUA    C1'   2477     0.160000    12.0110   ; qtot -77.090
  2478        HN7     81      GUA    H1'   2478     0.090000     1.0080   ; qtot -77.000
  2479       NN2B     81      GUA     N9   2479    -0.020000    14.0070   ; qtot -77.020
  2480        CN5     81      GUA     C4   2480     0.260000    12.0110   ; qtot -76.760
  2481        NN1     81      GUA     N2   2481    -0.680000    14.0070   ; qtot -77.440
  2482        HN1     81      GUA    H21   2482     0.320000     1.0080   ; qtot -77.120
  2483        HN1     81      GUA    H22   2483     0.350000     1.0080   ; qtot -76.770
  2484       NN3G     81      GUA     N3   2484    -0.740000    14.0070   ; qtot -77.510
  2485        CN2     81      GUA     C2   2485     0.750000    12.0110   ; qtot -76.760
  2486       NN2G     81      GUA     N1   2486    -0.340000    14.0070   ; qtot -77.100
  2487        HN2     81      GUA     H1   2487     0.260000     1.0080   ; qtot -76.840
  2488        CN1     81      GUA     C6   2488     0.540000    12.0110   ; qtot -76.300
  2489        ON1     81      GUA     O6   2489    -0.510000    15.9994   ; qtot -76.810
  2490       CN5G     81      GUA     C5   2490     0.000000    12.0110   ; qtot -76.810
  2491        NN4     81      GUA     N7   2491    -0.600000    14.0070   ; qtot -77.410
  2492        CN4     81      GUA     C8   2492     0.250000    12.0110   ; qtot -77.160
  2493        HN3     81      GUA     H8   2493     0.160000     1.0080   ; qtot -77.000
  2494       CN7B     81      GUA    C2'   2494     0.140000    12.0110   ; qtot -76.860
  2495        HN7     81      GUA   H2''   2495     0.090000     1.0080   ; qtot -76.770
  2496        ON5     81      GUA    O2'   2496    -0.660000    15.9994   ; qtot -77.430
  2497        HN5     81      GUA    H2'   2497     0.430000     1.0080   ; qtot -77.000
  2498        CN7     81      GUA    C3'   2498     0.010000    12.0110   ; qtot -76.990
  2499        HN7     81      GUA    H3'   2499     0.090000     1.0080   ; qtot -76.900
  2500        ON2     81      GUA    O3'   2500    -0.570000    15.9994   ; qtot -77.470
  2501          P     82      GUA      P   2501     1.500000    30.9740   ; qtot -75.970
  2502        ON3     82      GUA    O1P   2502    -0.780000    15.9994   ; qtot -76.750
  2503        ON3     82      GUA    O2P   2503    -0.780000    15.9994   ; qtot -77.530
  2504        ON2     82      GUA    O5'   2504    -0.570000    15.9994   ; qtot -78.100
  2505       CN8B     82      GUA    C5'   2505    -0.080000    12.0110   ; qtot -78.180
  2506        HN8     82      GUA    H5'   2506     0.090000     1.0080   ; qtot -78.090
  2507        HN8     82      GUA   H5''   2507     0.090000     1.0080   ; qtot -78.000
  2508        CN7     82      GUA    C4'   2508     0.160000    12.0110   ; qtot -77.840
  2509        HN7     82      GUA    H4'   2509     0.090000     1.0080   ; qtot -77.750
  2510       ON6B     82      GUA    O4'   2510    -0.500000    15.9994   ; qtot -78.250
  2511       CN7B     82      GUA    C1'   2511     0.160000    12.0110   ; qtot -78.090
  2512        HN7     82      GUA    H1'   2512     0.090000     1.0080   ; qtot -78.000
  2513       NN2B     82      GUA     N9   2513    -0.020000    14.0070   ; qtot -78.020
  2514        CN5     82      GUA     C4   2514     0.260000    12.0110   ; qtot -77.760
  2515        NN1     82      GUA     N2   2515    -0.680000    14.0070   ; qtot -78.440
  2516        HN1     82      GUA    H21   2516     0.320000     1.0080   ; qtot -78.120
  2517        HN1     82      GUA    H22   2517     0.350000     1.0080   ; qtot -77.770
  2518       NN3G     82      GUA     N3   2518    -0.740000    14.0070   ; qtot -78.510
  2519        CN2     82      GUA     C2   2519     0.750000    12.0110   ; qtot -77.760
  2520       NN2G     82      GUA     N1   2520    -0.340000    14.0070   ; qtot -78.100
  2521        HN2     82      GUA     H1   2521     0.260000     1.0080   ; qtot -77.840
  2522        CN1     82      GUA     C6   2522     0.540000    12.0110   ; qtot -77.300
  2523        ON1     82      GUA     O6   2523    -0.510000    15.9994   ; qtot -77.810
  2524       CN5G     82      GUA     C5   2524     0.000000    12.0110   ; qtot -77.810
  2525        NN4     82      GUA     N7   2525    -0.600000    14.0070   ; qtot -78.410
  2526        CN4     82      GUA     C8   2526     0.250000    12.0110   ; qtot -78.160
  2527        HN3     82      GUA     H8   2527     0.160000     1.0080   ; qtot -78.000
  2528       CN7B     82      GUA    C2'   2528     0.140000    12.0110   ; qtot -77.860
  2529        HN7     82      GUA   H2''   2529     0.090000     1.0080   ; qtot -77.770
  2530        ON5     82      GUA    O2'   2530    -0.660000    15.9994   ; qtot -78.430
  2531        HN5     82      GUA    H2'   2531     0.430000     1.0080   ; qtot -78.000
  2532        CN7     82      GUA    C3'   2532     0.010000    12.0110   ; qtot -77.990
  2533        HN7     82      GUA    H3'   2533     0.090000     1.0080   ; qtot -77.900
  2534        ON2     82      GUA    O3'   2534    -0.570000    15.9994   ; qtot -78.470
  2535          P     83      GUA      P   2535     1.500000    30.9740   ; qtot -76.970
  2536        ON3     83      GUA    O1P   2536    -0.780000    15.9994   ; qtot -77.750
  2537        ON3     83      GUA    O2P   2537    -0.780000    15.9994   ; qtot -78.530
  2538        ON2     83      GUA    O5'   2538    -0.570000    15.9994   ; qtot -79.100
  2539       CN8B     83      GUA    C5'   2539    -0.080000    12.0110   ; qtot -79.180
  2540        HN8     83      GUA    H5'   2540     0.090000     1.0080   ; qtot -79.090
  2541        HN8     83      GUA   H5''   2541     0.090000     1.0080   ; qtot -79.000
  2542        CN7     83      GUA    C4'   2542     0.160000    12.0110   ; qtot -78.840
  2543        HN7     83      GUA    H4'   2543     0.090000     1.0080   ; qtot -78.750
  2544       ON6B     83      GUA    O4'   2544    -0.500000    15.9994   ; qtot -79.250
  2545       CN7B     83      GUA    C1'   2545     0.160000    12.0110   ; qtot -79.090
  2546        HN7     83      GUA    H1'   2546     0.090000     1.0080   ; qtot -79.000
  2547       NN2B     83      GUA     N9   2547    -0.020000    14.0070   ; qtot -79.020
  2548        CN5     83      GUA     C4   2548     0.260000    12.0110   ; qtot -78.760
  2549        NN1     83      GUA     N2   2549    -0.680000    14.0070   ; qtot -79.440
  2550        HN1     83      GUA    H21   2550     0.320000     1.0080   ; qtot -79.120
  2551        HN1     83      GUA    H22   2551     0.350000     1.0080   ; qtot -78.770
  2552       NN3G     83      GUA     N3   2552    -0.740000    14.0070   ; qtot -79.510
  2553        CN2     83      GUA     C2   2553     0.750000    12.0110   ; qtot -78.760
  2554       NN2G     83      GUA     N1   2554    -0.340000    14.0070   ; qtot -79.100
  2555        HN2     83      GUA     H1   2555     0.260000     1.0080   ; qtot -78.840
  2556        CN1     83      GUA     C6   2556     0.540000    12.0110   ; qtot -78.300
  2557        ON1     83      GUA     O6   2557    -0.510000    15.9994   ; qtot -78.810
  2558       CN5G     83      GUA     C5   2558     0.000000    12.0110   ; qtot -78.810
  2559        NN4     83      GUA     N7   2559    -0.600000    14.0070   ; qtot -79.410
  2560        CN4     83      GUA     C8   2560     0.250000    12.0110   ; qtot -79.160
  2561        HN3     83      GUA     H8   2561     0.160000     1.0080   ; qtot -79.000
  2562       CN7B     83      GUA    C2'   2562     0.140000    12.0110   ; qtot -78.860
  2563        HN7     83      GUA   H2''   2563     0.090000     1.0080   ; qtot -78.770
  2564        ON5     83      GUA    O2'   2564    -0.660000    15.9994   ; qtot -79.430
  2565        HN5     83      GUA    H2'   2565     0.430000     1.0080   ; qtot -79.000
  2566        CN7     83      GUA    C3'   2566     0.010000    12.0110   ; qtot -78.990
  2567        HN7     83      GUA    H3'   2567     0.090000     1.0080   ; qtot -78.900
  2568        ON2     83      GUA    O3'   2568    -0.570000    15.9994   ; qtot -79.470
  2569          P     84      ADE      P   2569     1.500000    30.9740   ; qtot -77.970
  2570        ON3     84      ADE    O1P   2570    -0.780000    15.9994   ; qtot -78.750
  2571        ON3     84      ADE    O2P   2571    -0.780000    15.9994   ; qtot -79.530
  2572        ON2     84      ADE    O5'   2572    -0.570000    15.9994   ; qtot -80.100
  2573       CN8B     84      ADE    C5'   2573    -0.080000    12.0110   ; qtot -80.180
  2574        HN8     84      ADE    H5'   2574     0.090000     1.0080   ; qtot -80.090
  2575        HN8     84      ADE   H5''   2575     0.090000     1.0080   ; qtot -80.000
  2576        CN7     84      ADE    C4'   2576     0.160000    12.0110   ; qtot -79.840
  2577        HN7     84      ADE    H4'   2577     0.090000     1.0080   ; qtot -79.750
  2578       ON6B     84      ADE    O4'   2578    -0.500000    15.9994   ; qtot -80.250
  2579       CN7B     84      ADE    C1'   2579     0.160000    12.0110   ; qtot -80.090
  2580        HN7     84      ADE    H1'   2580     0.090000     1.0080   ; qtot -80.000
  2581        NN2     84      ADE     N9   2581    -0.050000    14.0070   ; qtot -80.050
  2582        CN5     84      ADE     C5   2582     0.280000    12.0110   ; qtot -79.770
  2583        NN4     84      ADE     N7   2583    -0.710000    14.0070   ; qtot -80.480
  2584        CN4     84      ADE     C8   2584     0.340000    12.0110   ; qtot -80.140
  2585        HN3     84      ADE     H8   2585     0.120000     1.0080   ; qtot -80.020
  2586       NN3A     84      ADE     N1   2586    -0.740000    14.0070   ; qtot -80.760
  2587        CN4     84      ADE     C2   2587     0.500000    12.0110   ; qtot -80.260
  2588        HN3     84      ADE     H2   2588     0.130000     1.0080   ; qtot -80.130
  2589       NN3A     84      ADE     N3   2589    -0.750000    14.0070   ; qtot -80.880
  2590        CN5     84      ADE     C4   2590     0.430000    12.0110   ; qtot -80.450
  2591        CN2     84      ADE     C6   2591     0.460000    12.0110   ; qtot -79.990
  2592        NN1     84      ADE     N6   2592    -0.770000    14.0070   ; qtot -80.760
  2593        HN1     84      ADE    H61   2593     0.380000     1.0080   ; qtot -80.380
  2594        HN1     84      ADE    H62   2594     0.380000     1.0080   ; qtot -80.000
  2595       CN7B     84      ADE    C2'   2595     0.140000    12.0110   ; qtot -79.860
  2596        HN7     84      ADE   H2''   2596     0.090000     1.0080   ; qtot -79.770
  2597        ON5     84      ADE    O2'   2597    -0.660000    15.9994   ; qtot -80.430
  2598        HN5     84      ADE    H2'   2598     0.430000     1.0080   ; qtot -80.000
  2599        CN7     84      ADE    C3'   2599     0.010000    12.0110   ; qtot -79.990
  2600        HN7     84      ADE    H3'   2600     0.090000     1.0080   ; qtot -79.900
  2601        ON2     84      ADE    O3'   2601    -0.570000    15.9994   ; qtot -80.470
  2602          P     85      ADE      P   2602     1.500000    30.9740   ; qtot -78.970
  2603        ON3     85      ADE    O1P   2603    -0.780000    15.9994   ; qtot -79.750
  2604        ON3     85      ADE    O2P   2604    -0.780000    15.9994   ; qtot -80.530
  2605        ON2     85      ADE    O5'   2605    -0.570000    15.9994   ; qtot -81.100
  2606       CN8B     85      ADE    C5'   2606    -0.080000    12.0110   ; qtot -81.180
  2607        HN8     85      ADE    H5'   2607     0.090000     1.0080   ; qtot -81.090
  2608        HN8     85      ADE   H5''   2608     0.090000     1.0080   ; qtot -81.000
  2609        CN7     85      ADE    C4'   2609     0.160000    12.0110   ; qtot -80.840
  2610        HN7     85      ADE    H4'   2610     0.090000     1.0080   ; qtot -80.750
  2611       ON6B     85      ADE    O4'   2611    -0.500000    15.9994   ; qtot -81.250
  2612       CN7B     85      ADE    C1'   2612     0.160000    12.0110   ; qtot -81.090
  2613        HN7     85      ADE    H1'   2613     0.090000     1.0080   ; qtot -81.000
  2614        NN2     85      ADE     N9   2614    -0.050000    14.0070   ; qtot -81.050
  2615        CN5     85      ADE     C5   2615     0.280000    12.0110   ; qtot -80.770
  2616        NN4     85      ADE     N7   2616    -0.710000    14.0070   ; qtot -81.480
  2617        CN4     85      ADE     C8   2617     0.340000    12.0110   ; qtot -81.140
  2618        HN3     85      ADE     H8   2618     0.120000     1.0080   ; qtot -81.020
  2619       NN3A     85      ADE     N1   2619    -0.740000    14.0070   ; qtot -81.760
  2620        CN4     85      ADE     C2   2620     0.500000    12.0110   ; qtot -81.260
  2621        HN3     85      ADE     H2   2621     0.130000     1.0080   ; qtot -81.130
  2622       NN3A     85      ADE     N3   2622    -0.750000    14.0070   ; qtot -81.880
  2623        CN5     85      ADE     C4   2623     0.430000    12.0110   ; qtot -81.450
  2624        CN2     85      ADE     C6   2624     0.460000    12.0110   ; qtot -80.990
  2625        NN1     85      ADE     N6   2625    -0.770000    14.0070   ; qtot -81.760
  2626        HN1     85      ADE    H61   2626     0.380000     1.0080   ; qtot -81.380
  2627        HN1     85      ADE    H62   2627     0.380000     1.0080   ; qtot -81.000
  2628       CN7B     85      ADE    C2'   2628     0.140000    12.0110   ; qtot -80.860
  2629        HN7     85      ADE   H2''   2629     0.090000     1.0080   ; qtot -80.770
  2630        ON5     85      ADE    O2'   2630    -0.660000    15.9994   ; qtot -81.430
  2631        HN5     85      ADE    H2'   2631     0.430000     1.0080   ; qtot -81.000
  2632        CN7     85      ADE    C3'   2632     0.010000    12.0110   ; qtot -80.990
  2633        HN7     85      ADE    H3'   2633     0.090000     1.0080   ; qtot -80.900
  2634        ON2     85      ADE    O3'   2634    -0.570000    15.9994   ; qtot -81.470
  2635          P     86      GUA      P   2635     1.500000    30.9740   ; qtot -79.970
  2636        ON3     86      GUA    O1P   2636    -0.780000    15.9994   ; qtot -80.750
  2637        ON3     86      GUA    O2P   2637    -0.780000    15.9994   ; qtot -81.530
  2638        ON2     86      GUA    O5'   2638    -0.570000    15.9994   ; qtot -82.100
  2639       CN8B     86      GUA    C5'   2639    -0.080000    12.0110   ; qtot -82.180
  2640        HN8     86      GUA    H5'   2640     0.090000     1.0080   ; qtot -82.090
  2641        HN8     86      GUA   H5''   2641     0.090000     1.0080   ; qtot -82.000
  2642        CN7     86      GUA    C4'   2642     0.160000    12.0110   ; qtot -81.840
  2643        HN7     86      GUA    H4'   2643     0.090000     1.0080   ; qtot -81.750
  2644       ON6B     86      GUA    O4'   2644    -0.500000    15.9994   ; qtot -82.250
  2645       CN7B     86      GUA    C1'   2645     0.160000    12.0110   ; qtot -82.090
  2646        HN7     86      GUA    H1'   2646     0.090000     1.0080   ; qtot -82.000
  2647       NN2B     86      GUA     N9   2647    -0.020000    14.0070   ; qtot -82.020
  2648        CN5     86      GUA     C4   2648     0.260000    12.0110   ; qtot -81.760
  2649        NN1     86      GUA     N2   2649    -0.680000    14.0070   ; qtot -82.440
  2650        HN1     86      GUA    H21   2650     0.320000     1.0080   ; qtot -82.120
  2651        HN1     86      GUA    H22   2651     0.350000     1.0080   ; qtot -81.770
  2652       NN3G     86      GUA     N3   2652    -0.740000    14.0070   ; qtot -82.510
  2653        CN2     86      GUA     C2   2653     0.750000    12.0110   ; qtot -81.760
  2654       NN2G     86      GUA     N1   2654    -0.340000    14.0070   ; qtot -82.100
  2655        HN2     86      GUA     H1   2655     0.260000     1.0080   ; qtot -81.840
  2656        CN1     86      GUA     C6   2656     0.540000    12.0110   ; qtot -81.300
  2657        ON1     86      GUA     O6   2657    -0.510000    15.9994   ; qtot -81.810
  2658       CN5G     86      GUA     C5   2658     0.000000    12.0110   ; qtot -81.810
  2659        NN4     86      GUA     N7   2659    -0.600000    14.0070   ; qtot -82.410
  2660        CN4     86      GUA     C8   2660     0.250000    12.0110   ; qtot -82.160
  2661        HN3     86      GUA     H8   2661     0.160000     1.0080   ; qtot -82.000
  2662       CN7B     86      GUA    C2'   2662     0.140000    12.0110   ; qtot -81.860
  2663        HN7     86      GUA   H2''   2663     0.090000     1.0080   ; qtot -81.770
  2664        ON5     86      GUA    O2'   2664    -0.660000    15.9994   ; qtot -82.430
  2665        HN5     86      GUA    H2'   2665     0.430000     1.0080   ; qtot -82.000
  2666        CN7     86      GUA    C3'   2666     0.010000    12.0110   ; qtot -81.990
  2667        HN7     86      GUA    H3'   2667     0.090000     1.0080   ; qtot -81.900
  2668        ON2     86      GUA    O3'   2668    -0.570000    15.9994   ; qtot -82.470
  2669          P     87      URA      P   2669     1.500000    30.9740   ; qtot -80.970
  2670        ON3     87      URA    O1P   2670    -0.780000    15.9994   ; qtot -81.750
  2671        ON3     87      URA    O2P   2671    -0.780000    15.9994   ; qtot -82.530
  2672        ON2     87      URA    O5'   2672    -0.570000    15.9994   ; qtot -83.100
  2673       CN8B     87      URA    C5'   2673    -0.080000    12.0110   ; qtot -83.180
  2674        HN8     87      URA    H5'   2674     0.090000     1.0080   ; qtot -83.090
  2675        HN8     87      URA   H5''   2675     0.090000     1.0080   ; qtot -83.000
  2676        CN7     87      URA    C4'   2676     0.160000    12.0110   ; qtot -82.840
  2677        HN7     87      URA    H4'   2677     0.090000     1.0080   ; qtot -82.750
  2678       ON6B     87      URA    O4'   2678    -0.500000    15.9994   ; qtot -83.250
  2679       CN7B     87      URA    C1'   2679     0.160000    12.0110   ; qtot -83.090
  2680        HN7     87      URA    H1'   2680     0.090000     1.0080   ; qtot -83.000
  2681       NN2B     87      URA     N1   2681    -0.340000    14.0070   ; qtot -83.340
  2682        CN3     87      URA     C6   2682     0.200000    12.0110   ; qtot -83.140
  2683        HN3     87      URA     H6   2683     0.140000     1.0080   ; qtot -83.000
  2684       CN1T     87      URA     C2   2684     0.550000    12.0110   ; qtot -82.450
  2685        ON1     87      URA     O2   2685    -0.450000    15.9994   ; qtot -82.900
  2686       NN2U     87      URA     N3   2686    -0.460000    14.0070   ; qtot -83.360
  2687        HN2     87      URA     H3   2687     0.360000     1.0080   ; qtot -83.000
  2688        CN1     87      URA     C4   2688     0.530000    12.0110   ; qtot -82.470
  2689        ON1     87      URA     O4   2689    -0.480000    15.9994   ; qtot -82.950
  2690        CN3     87      URA     C5   2690    -0.150000    12.0110   ; qtot -83.100
  2691        HN3     87      URA     H5   2691     0.100000     1.0080   ; qtot -83.000
  2692       CN7B     87      URA    C2'   2692     0.140000    12.0110   ; qtot -82.860
  2693        HN7     87      URA   H2''   2693     0.090000     1.0080   ; qtot -82.770
  2694        ON5     87      URA    O2'   2694    -0.660000    15.9994   ; qtot -83.430
  2695        HN5     87      URA    H2'   2695     0.430000     1.0080   ; qtot -83.000
  2696        CN7     87      URA    C3'   2696     0.010000    12.0110   ; qtot -82.990
  2697        HN7     87      URA    H3'   2697     0.090000     1.0080   ; qtot -82.900
  2698        ON2     87      URA    O3'   2698    -0.570000    15.9994   ; qtot -83.470
  2699          P     88      CYT      P   2699     1.500000    30.9740   ; qtot -81.970
  2700        ON3     88      CYT    O1P   2700    -0.780000    15.9994   ; qtot -82.750
  2701        ON3     88      CYT    O2P   2701    -0.780000    15.9994   ; qtot -83.530
  2702        ON2     88      CYT    O5'   2702    -0.570000    15.9994   ; qtot -84.100
  2703       CN8B     88      CYT    C5'   2703    -0.080000    12.0110   ; qtot -84.180
  2704        HN8     88      CYT    H5'   2704     0.090000     1.0080   ; qtot -84.090
  2705        HN8     88      CYT   H5''   2705     0.090000     1.0080   ; qtot -84.000
  2706        CN7     88      CYT    C4'   2706     0.160000    12.0110   ; qtot -83.840
  2707        HN7     88      CYT    H4'   2707     0.090000     1.0080   ; qtot -83.750
  2708       ON6B     88      CYT    O4'   2708    -0.500000    15.9994   ; qtot -84.250
  2709       CN7B     88      CYT    C1'   2709     0.160000    12.0110   ; qtot -84.090
  2710        HN7     88      CYT    H1'   2710     0.090000     1.0080   ; qtot -84.000
  2711        NN2     88      CYT     N1   2711    -0.130000    14.0070   ; qtot -84.130
  2712        CN3     88      CYT     C6   2712     0.050000    12.0110   ; qtot -84.080
  2713        HN3     88      CYT     H6   2713     0.170000     1.0080   ; qtot -83.910
  2714        CN3     88      CYT     C5   2714    -0.130000    12.0110   ; qtot -84.040
  2715        HN3     88      CYT     H5   2715     0.070000     1.0080   ; qtot -83.970
  2716        CN1     88      CYT     C2   2716     0.520000    12.0110   ; qtot -83.450
  2717       ON1C     88      CYT     O2   2717    -0.490000    15.9994   ; qtot -83.940
  2718        NN3     88      CYT     N3   2718    -0.660000    14.0070   ; qtot -84.600
  2719        CN2     88      CYT     C4   2719     0.650000    12.0110   ; qtot -83.950
  2720        NN1     88      CYT     N4   2720    -0.750000    14.0070   ; qtot -84.700
  2721        HN1     88      CYT    H41   2721     0.370000     1.0080   ; qtot -84.330
  2722        HN1     88      CYT    H42   2722     0.330000     1.0080   ; qtot -84.000
  2723       CN7B     88      CYT    C2'   2723     0.140000    12.0110   ; qtot -83.860
  2724        HN7     88      CYT   H2''   2724     0.090000     1.0080   ; qtot -83.770
  2725        ON5     88      CYT    O2'   2725    -0.660000    15.9994   ; qtot -84.430
  2726        HN5     88      CYT    H2'   2726     0.430000     1.0080   ; qtot -84.000
  2727        CN7     88      CYT    C3'   2727     0.010000    12.0110   ; qtot -83.990
  2728        HN7     88      CYT    H3'   2728     0.090000     1.0080   ; qtot -83.900
  2729        ON2     88      CYT    O3'   2729    -0.570000    15.9994   ; qtot -84.470
  2730          P     89      GUA      P   2730     1.500000    30.9740   ; qtot -82.970
  2731        ON3     89      GUA    O1P   2731    -0.780000    15.9994   ; qtot -83.750
  2732        ON3     89      GUA    O2P   2732    -0.780000    15.9994   ; qtot -84.530
  2733        ON2     89      GUA    O5'   2733    -0.570000    15.9994   ; qtot -85.100
  2734       CN8B     89      GUA    C5'   2734    -0.080000    12.0110   ; qtot -85.180
  2735        HN8     89      GUA    H5'   2735     0.090000     1.0080   ; qtot -85.090
  2736        HN8     89      GUA   H5''   2736     0.090000     1.0080   ; qtot -85.000
  2737        CN7     89      GUA    C4'   2737     0.160000    12.0110   ; qtot -84.840
  2738        HN7     89      GUA    H4'   2738     0.090000     1.0080   ; qtot -84.750
  2739       ON6B     89      GUA    O4'   2739    -0.500000    15.9994   ; qtot -85.250
  2740       CN7B     89      GUA    C1'   2740     0.160000    12.0110   ; qtot -85.090
  2741        HN7     89      GUA    H1'   2741     0.090000     1.0080   ; qtot -85.000
  2742       NN2B     89      GUA     N9   2742    -0.020000    14.0070   ; qtot -85.020
  2743        CN5     89      GUA     C4   2743     0.260000    12.0110   ; qtot -84.760
  2744        NN1     89      GUA     N2   2744    -0.680000    14.0070   ; qtot -85.440
  2745        HN1     89      GUA    H21   2745     0.320000     1.0080   ; qtot -85.120
  2746        HN1     89      GUA    H22   2746     0.350000     1.0080   ; qtot -84.770
  2747       NN3G     89      GUA     N3   2747    -0.740000    14.0070   ; qtot -85.510
  2748        CN2     89      GUA     C2   2748     0.750000    12.0110   ; qtot -84.760
  2749       NN2G     89      GUA     N1   2749    -0.340000    14.0070   ; qtot -85.100
  2750        HN2     89      GUA     H1   2750     0.260000     1.0080   ; qtot -84.840
  2751        CN1     89      GUA     C6   2751     0.540000    12.0110   ; qtot -84.300
  2752        ON1     89      GUA     O6   2752    -0.510000    15.9994   ; qtot -84.810
  2753       CN5G     89      GUA     C5   2753     0.000000    12.0110   ; qtot -84.810
  2754        NN4     89      GUA     N7   2754    -0.600000    14.0070   ; qtot -85.410
  2755        CN4     89      GUA     C8   2755     0.250000    12.0110   ; qtot -85.160
  2756        HN3     89      GUA     H8   2756     0.160000     1.0080   ; qtot -85.000
  2757       CN7B     89      GUA    C2'   2757     0.140000    12.0110   ; qtot -84.860
  2758        HN7     89      GUA   H2''   2758     0.090000     1.0080   ; qtot -84.770
  2759        ON5     89      GUA    O2'   2759    -0.660000    15.9994   ; qtot -85.430
  2760        HN5     89      GUA    H2'   2760     0.430000     1.0080   ; qtot -85.000
  2761        CN7     89      GUA    C3'   2761     0.010000    12.0110   ; qtot -84.990
  2762        HN7     89      GUA    H3'   2762     0.090000     1.0080   ; qtot -84.900
  2763        ON2     89      GUA    O3'   2763    -0.570000    15.9994   ; qtot -85.470
  2764          P     90      CYT      P   2764     1.500000    30.9740   ; qtot -83.970
  2765        ON3     90      CYT    O1P   2765    -0.780000    15.9994   ; qtot -84.750
  2766        ON3     90      CYT    O2P   2766    -0.780000    15.9994   ; qtot -85.530
  2767        ON2     90      CYT    O5'   2767    -0.570000    15.9994   ; qtot -86.100
  2768       CN8B     90      CYT    C5'   2768    -0.080000    12.0110   ; qtot -86.180
  2769        HN8     90      CYT    H5'   2769     0.090000     1.0080   ; qtot -86.090
  2770        HN8     90      CYT   H5''   2770     0.090000     1.0080   ; qtot -86.000
  2771        CN7     90      CYT    C4'   2771     0.160000    12.0110   ; qtot -85.840
  2772        HN7     90      CYT    H4'   2772     0.090000     1.0080   ; qtot -85.750
  2773       ON6B     90      CYT    O4'   2773    -0.500000    15.9994   ; qtot -86.250
  2774       CN7B     90      CYT    C1'   2774     0.160000    12.0110   ; qtot -86.090
  2775        HN7     90      CYT    H1'   2775     0.090000     1.0080   ; qtot -86.000
  2776        NN2     90      CYT     N1   2776    -0.130000    14.0070   ; qtot -86.130
  2777        CN3     90      CYT     C6   2777     0.050000    12.0110   ; qtot -86.080
  2778        HN3     90      CYT     H6   2778     0.170000     1.0080   ; qtot -85.910
  2779        CN3     90      CYT     C5   2779    -0.130000    12.0110   ; qtot -86.040
  2780        HN3     90      CYT     H5   2780     0.070000     1.0080   ; qtot -85.970
  2781        CN1     90      CYT     C2   2781     0.520000    12.0110   ; qtot -85.450
  2782       ON1C     90      CYT     O2   2782    -0.490000    15.9994   ; qtot -85.940
  2783        NN3     90      CYT     N3   2783    -0.660000    14.0070   ; qtot -86.600
  2784        CN2     90      CYT     C4   2784     0.650000    12.0110   ; qtot -85.950
  2785        NN1     90      CYT     N4   2785    -0.750000    14.0070   ; qtot -86.700
  2786        HN1     90      CYT    H41   2786     0.370000     1.0080   ; qtot -86.330
  2787        HN1     90      CYT    H42   2787     0.330000     1.0080   ; qtot -86.000
  2788       CN7B     90      CYT    C2'   2788     0.140000    12.0110   ; qtot -85.860
  2789        HN7     90      CYT   H2''   2789     0.090000     1.0080   ; qtot -85.770
  2790        ON5     90      CYT    O2'   2790    -0.660000    15.9994   ; qtot -86.430
  2791        HN5     90      CYT    H2'   2791     0.430000     1.0080   ; qtot -86.000
  2792        CN7     90      CYT    C3'   2792     0.140000    12.0110   ; qtot -85.860
  2793        HN7     90      CYT    H3'   2793     0.090000     1.0080   ; qtot -85.770
  2794        ON5     90      CYT    O3'   2794    -0.660000    15.9994   ; qtot -86.430
  2795        HN5     90      CYT    H3T   2795     0.430000     1.0080   ; qtot -86.000

[ bonds ]
; ai	aj	funct	b0	Kb
    1     2     1
    2     3     1
    3     4     1
    3     5     1
    3     6     1
    6     7     1
    6     8     1
    6    30     1
    8     9     1
    9    10     1
    9    11     1
    9    26     1
   11    12     1
   11    24     1
   12    16     1
   12    22     1
   13    14     1
   13    15     1
   17    13     1
   17    16     1
   17    18     1
   18    19     1
   18    20     1
   20    21     1
   20    22     1
   22    23     1
   23    24     1
   24    25     1
   26    27     1
   26    28     1
   26    30     1
   28    29     1
   30    31     1
   30    32     1
   32    33     1
   33    34     1
   33    35     1
   33    36     1
   36    37     1
   37    38     1
   37    39     1
   37    40     1
   40    41     1
   40    42     1
   40    61     1
   42    43     1
   43    44     1
   43    45     1
   43    57     1
   45    46     1
   45    50     1
   46    47     1
   48    46     1
   48    49     1
   53    48     1
   50    51     1
   50    52     1
   52    53     1
   53    54     1
   54    55     1
   54    56     1
   57    58     1
   57    59     1
   57    61     1
   59    60     1
   61    62     1
   61    63     1
   63    64     1
   64    65     1
   64    66     1
   64    67     1
   67    68     1
   68    69     1
   68    70     1
   68    71     1
   71    72     1
   71    73     1
   71    95     1
   73    74     1
   74    75     1
   74    76     1
   74    91     1
   76    77     1
   76    89     1
   77    81     1
   77    87     1
   78    79     1
   78    80     1
   82    78     1
   82    81     1
   82    83     1
   83    84     1
   83    85     1
   85    86     1
   85    87     1
   87    88     1
   88    89     1
   89    90     1
   91    92     1
   91    93     1
   91    95     1
   93    94     1
   95    96     1
   95    97     1
   97    98     1
   98    99     1
   98   100     1
   98   101     1
  101   102     1
  102   103     1
  102   104     1
  102   105     1
  105   106     1
  105   107     1
  105   128     1
  107   108     1
  108   109     1
  108   110     1
  108   124     1
  110   113     1
  110   119     1
  111   112     1
  119   111     1
  120   111     1
  112   113     1
  113   114     1
  116   115     1
  115   120     1
  116   117     1
  116   118     1
  119   118     1
  120   121     1
  121   122     1
  121   123     1
  124   125     1
  124   126     1
  124   128     1
  126   127     1
  128   129     1
  128   130     1
  130   131     1
  131   132     1
  131   133     1
  131   134     1
  134   135     1
  135   136     1
  135   137     1
  135   138     1
  138   139     1
  138   140     1
  138   159     1
  140   141     1
  141   142     1
  141   143     1
  141   155     1
  143   144     1
  143   148     1
  144   145     1
  146   144     1
  146   147     1
  151   146     1
  148   149     1
  148   150     1
  150   151     1
  151   152     1
  152   153     1
  152   154     1
  155   156     1
  155   157     1
  155   159     1
  157   158     1
  159   160     1
  159   161     1
  161   162     1
  162   163     1
  162   164     1
  162   165     1
  165   166     1
  166   167     1
  166   168     1
  166   169     1
  169   170     1
  169   171     1
  169   189     1
  171   172     1
  172   173     1
  172   174     1
  172   185     1
  174   175     1
  174   177     1
  175   176     1
  183   175     1
  177   178     1
  177   179     1
  179   180     1
  179   181     1
  181   182     1
  181   183     1
  183   184     1
  185   186     1
  185   187     1
  185   189     1
  187   188     1
  189   190     1
  189   191     1
  191   192     1
  192   193     1
  192   194     1
  192   195     1
  195   196     1
  196   197     1
  196   198     1
  196   199     1
  199   200     1
  199   201     1
  199   220     1
  201   202     1
  202   203     1
  202   204     1
  202   216     1
  204   205     1
  204   209     1
  205   206     1
  207   205     1
  207   208     1
  212   207     1
  209   210     1
  209   211     1
  211   212     1
  212   213     1
  213   214     1
  213   215     1
  216   217     1
  216   218     1
  216   220     1
  218   219     1
  220   221     1
  220   222     1
  222   223     1
  223   224     1
  223   225     1
  223   226     1
  226   227     1
  227   228     1
  227   229     1
  227   230     1
  230   231     1
  230   232     1
  230   254     1
  232   233     1
  233   234     1
  233   235     1
  233   250     1
  235   236     1
  235   248     1
  236   240     1
  236   246     1
  237   238     1
  237   239     1
  241   237     1
  241   240     1
  241   242     1
  242   243     1
  242   244     1
  244   245     1
  244   246     1
  246   247     1
  247   248     1
  248   249     1
  250   251     1
  250   252     1
  250   254     1
  252   253     1
  254   255     1
  254   256     1
  256   257     1
  257   258     1
  257   259     1
  257   260     1
  260   261     1
  261   262     1
  261   263     1
  261   264     1
  264   265     1
  264   266     1
  264   288     1
  266   267     1
  267   268     1
  267   269     1
  267   284     1
  269   270     1
  269   282     1
  270   274     1
  270   280     1
  271   272     1
  271   273     1
  275   271     1
  275   274     1
  275   276     1
  276   277     1
  276   278     1
  278   279     1
  278   280     1
  280   281     1
  281   282     1
  282   283     1
  284   285     1
  284   286     1
  284   288     1
  286   287     1
  288   289     1
  288   290     1
  290   291     1
  291   292     1
  291   293     1
  291   294     1
  294   295     1
  295   296     1
  295   297     1
  295   298     1
  298   299     1
  298   300     1
  298   322     1
  300   301     1
  301   302     1
  301   303     1
  301   318     1
  303   304     1
  303   316     1
  304   308     1
  304   314     1
  305   306     1
  305   307     1
  309   305     1
  309   308     1
  309   310     1
  310   311     1
  310   312     1
  312   313     1
  312   314     1
  314   315     1
  315   316     1
  316   317     1
  318   319     1
  318   320     1
  318   322     1
  320   321     1
  322   323     1
  322   324     1
  324   325     1
  325   326     1
  325   327     1
  325   328     1
  328   329     1
  329   330     1
  329   331     1
  329   332     1
  332   333     1
  332   334     1
  332   356     1
  334   335     1
  335   336     1
  335   337     1
  335   352     1
  337   338     1
  337   350     1
  338   342     1
  338   348     1
  339   340     1
  339   341     1
  343   339     1
  343   342     1
  343   344     1
  344   345     1
  344   346     1
  346   347     1
  346   348     1
  348   349     1
  349   350     1
  350   351     1
  352   353     1
  352   354     1
  352   356     1
  354   355     1
  356   357     1
  356   358     1
  358   359     1
  359   360     1
  359   361     1
  359   362     1
  362   363     1
  363   364     1
  363   365     1
  363   366     1
  366   367     1
  366   368     1
  366   386     1
  368   369     1
  369   370     1
  369   371     1
  369   382     1
  371   372     1
  371   374     1
  372   373     1
  380   372     1
  374   375     1
  374   376     1
  376   377     1
  376   378     1
  378   379     1
  378   380     1
  380   381     1
  382   383     1
  382   384     1
  382   386     1
  384   385     1
  386   387     1
  386   388     1
  388   389     1
  389   390     1
  389   391     1
  389   392     1
  392   393     1
  393   394     1
  393   395     1
  393   396     1
  396   397     1
  396   398     1
  396   420     1
  398   399     1
  399   400     1
  399   401     1
  399   416     1
  401   402     1
  401   414     1
  402   406     1
  402   412     1
  403   404     1
  403   405     1
  407   403     1
  407   406     1
  407   408     1
  408   409     1
  408   410     1
  410   411     1
  410   412     1
  412   413     1
  413   414     1
  414   415     1
  416   417     1
  416   418     1
  416   420     1
  418   419     1
  420   421     1
  420   422     1
  422   423     1
  423   424     1
  423   425     1
  423   426     1
  426   427     1
  427   428     1
  427   429     1
  427   430     1
  430   431     1
  430   432     1
  430   451     1
  432   433     1
  433   434     1
  433   435     1
  433   447     1
  435   436     1
  435   440     1
  436   437     1
  438   436     1
  438   439     1
  443   438     1
  440   441     1
  440   442     1
  442   443     1
  443   444     1
  444   445     1
  444   446     1
  447   448     1
  447   449     1
  447   451     1
  449   450     1
  451   452     1
  451   453     1
  453   454     1
  454   455     1
  454   456     1
  454   457     1
  457   458     1
  458   459     1
  458   460     1
  458   461     1
  461   462     1
  461   463     1
  461   482     1
  463   464     1
  464   465     1
  464   466     1
  464   478     1
  466   467     1
  466   471     1
  467   468     1
  469   467     1
  469   470     1
  474   469     1
  471   472     1
  471   473     1
  473   474     1
  474   475     1
  475   476     1
  475   477     1
  478   479     1
  478   480     1
  478   482     1
  480   481     1
  482   483     1
  482   484     1
  484   485     1
  485   486     1
  485   487     1
  485   488     1
  488   489     1
  489   490     1
  489   491     1
  489   492     1
  492   493     1
  492   494     1
  492   513     1
  494   495     1
  495   496     1
  495   497     1
  495   509     1
  497   498     1
  497   502     1
  498   499     1
  500   498     1
  500   501     1
  505   500     1
  502   503     1
  502   504     1
  504   505     1
  505   506     1
  506   507     1
  506   508     1
  509   510     1
  509   511     1
  509   513     1
  511   512     1
  513   514     1
  513   515     1
  515   516     1
  516   517     1
  516   518     1
  516   519     1
  519   520     1
  520   521     1
  520   522     1
  520   523     1
  523   524     1
  523   525     1
  523   543     1
  525   526     1
  526   527     1
  526   528     1
  526   539     1
  528   529     1
  528   531     1
  529   530     1
  537   529     1
  531   532     1
  531   533     1
  533   534     1
  533   535     1
  535   536     1
  535   537     1
  537   538     1
  539   540     1
  539   541     1
  539   543     1
  541   542     1
  543   544     1
  543   545     1
  545   546     1
  546   547     1
  546   548     1
  546   549     1
  549   550     1
  550   551     1
  550   552     1
  550   553     1
  553   554     1
  553   555     1
  553   574     1
  555   556     1
  556   557     1
  556   558     1
  556   570     1
  558   559     1
  558   563     1
  559   560     1
  561   559     1
  561   562     1
  566   561     1
  563   564     1
  563   565     1
  565   566     1
  566   567     1
  567   568     1
  567   569     1
  570   571     1
  570   572     1
  570   574     1
  572   573     1
  574   575     1
  574   576     1
  576   577     1
  577   578     1
  577   579     1
  577   580     1
  580   581     1
  581   582     1
  581   583     1
  581   584     1
  584   585     1
  584   586     1
  584   605     1
  586   587     1
  587   588     1
  587   589     1
  587   601     1
  589   590     1
  589   594     1
  590   591     1
  592   590     1
  592   593     1
  597   592     1
  594   595     1
  594   596     1
  596   597     1
  597   598     1
  598   599     1
  598   600     1
  601   602     1
  601   603     1
  601   605     1
  603   604     1
  605   606     1
  605   607     1
  607   608     1
  608   609     1
  608   610     1
  608   611     1
  611   612     1
  612   613     1
  612   614     1
  612   615     1
  615   616     1
  615   617     1
  615   638     1
  617   618     1
  618   619     1
  618   620     1
  618   634     1
  620   623     1
  620   629     1
  621   622     1
  629   621     1
  630   621     1
  622   623     1
  623   624     1
  626   625     1
  625   630     1
  626   627     1
  626   628     1
  629   628     1
  630   631     1
  631   632     1
  631   633     1
  634   635     1
  634   636     1
  634   638     1
  636   637     1
  638   639     1
  638   640     1
  640   641     1
  641   642     1
  641   643     1
  641   644     1
  644   645     1
  645   646     1
  645   647     1
  645   648     1
  648   649     1
  648   650     1
  648   668     1
  650   651     1
  651   652     1
  651   653     1
  651   664     1
  653   654     1
  653   656     1
  654   655     1
  662   654     1
  656   657     1
  656   658     1
  658   659     1
  658   660     1
  660   661     1
  660   662     1
  662   663     1
  664   665     1
  664   666     1
  664   668     1
  666   667     1
  668   669     1
  668   670     1
  670   671     1
  671   672     1
  671   673     1
  671   674     1
  674   675     1
  675   676     1
  675   677     1
  675   678     1
  678   679     1
  678   680     1
  678   698     1
  680   681     1
  681   682     1
  681   683     1
  681   694     1
  683   684     1
  683   686     1
  684   685     1
  692   684     1
  686   687     1
  686   688     1
  688   689     1
  688   690     1
  690   691     1
  690   692     1
  692   693     1
  694   695     1
  694   696     1
  694   698     1
  696   697     1
  698   699     1
  698   700     1
  700   701     1
  701   702     1
  701   703     1
  701   704     1
  704   705     1
  705   706     1
  705   707     1
  705   708     1
  708   709     1
  708   710     1
  708   732     1
  710   711     1
  711   712     1
  711   713     1
  711   728     1
  713   714     1
  713   726     1
  714   718     1
  714   724     1
  715   716     1
  715   717     1
  719   715     1
  719   718     1
  719   720     1
  720   721     1
  720   722     1
  722   723     1
  722   724     1
  724   725     1
  725   726     1
  726   727     1
  728   729     1
  728   730     1
  728   732     1
  730   731     1
  732   733     1
  732   734     1
  734   735     1
  735   736     1
  735   737     1
  735   738     1
  738   739     1
  739   740     1
  739   741     1
  739   742     1
  742   743     1
  742   744     1
  742   763     1
  744   745     1
  745   746     1
  745   747     1
  745   759     1
  747   748     1
  747   752     1
  748   749     1
  750   748     1
  750   751     1
  755   750     1
  752   753     1
  752   754     1
  754   755     1
  755   756     1
  756   757     1
  756   758     1
  759   760     1
  759   761     1
  759   763     1
  761   762     1
  763   764     1
  763   765     1
  765   766     1
  766   767     1
  766   768     1
  766   769     1
  769   770     1
  770   771     1
  770   772     1
  770   773     1
  773   774     1
  773   775     1
  773   796     1
  775   776     1
  776   777     1
  776   778     1
  776   792     1
  778   781     1
  778   787     1
  779   780     1
  787   779     1
  788   779     1
  780   781     1
  781   782     1
  784   783     1
  783   788     1
  784   785     1
  784   786     1
  787   786     1
  788   789     1
  789   790     1
  789   791     1
  792   793     1
  792   794     1
  792   796     1
  794   795     1
  796   797     1
  796   798     1
  798   799     1
  799   800     1
  799   801     1
  799   802     1
  802   803     1
  803   804     1
  803   805     1
  803   806     1
  806   807     1
  806   808     1
  806   827     1
  808   809     1
  809   810     1
  809   811     1
  809   823     1
  811   812     1
  811   816     1
  812   813     1
  814   812     1
  814   815     1
  819   814     1
  816   817     1
  816   818     1
  818   819     1
  819   820     1
  820   821     1
  820   822     1
  823   824     1
  823   825     1
  823   827     1
  825   826     1
  827   828     1
  827   829     1
  829   830     1
  830   831     1
  830   832     1
  830   833     1
  833   834     1
  834   835     1
  834   836     1
  834   837     1
  837   838     1
  837   839     1
  837   857     1
  839   840     1
  840   841     1
  840   842     1
  840   853     1
  842   843     1
  842   845     1
  843   844     1
  851   843     1
  845   846     1
  845   847     1
  847   848     1
  847   849     1
  849   850     1
  849   851     1
  851   852     1
  853   854     1
  853   855     1
  853   857     1
  855   856     1
  857   858     1
  857   859     1
  859   860     1
  860   861     1
  860   862     1
  860   863     1
  863   864     1
  864   865     1
  864   866     1
  864   867     1
  867   868     1
  867   869     1
  867   888     1
  869   870     1
  870   871     1
  870   872     1
  870   884     1
  872   873     1
  872   877     1
  873   874     1
  875   873     1
  875   876     1
  880   875     1
  877   878     1
  877   879     1
  879   880     1
  880   881     1
  881   882     1
  881   883     1
  884   885     1
  884   886     1
  884   888     1
  886   887     1
  888   889     1
  888   890     1
  890   891     1
  891   892     1
  891   893     1
  891   894     1
  894   895     1
  895   896     1
  895   897     1
  895   898     1
  898   899     1
  898   900     1
  898   919     1
  900   901     1
  901   902     1
  901   903     1
  901   915     1
  903   904     1
  903   908     1
  904   905     1
  906   904     1
  906   907     1
  911   906     1
  908   909     1
  908   910     1
  910   911     1
  911   912     1
  912   913     1
  912   914     1
  915   916     1
  915   917     1
  915   919     1
  917   918     1
  919   920     1
  919   921     1
  921   922     1
  922   923     1
  922   924     1
  922   925     1
  925   926     1
  926   927     1
  926   928     1
  926   929     1
  929   930     1
  929   931     1
  929   953     1
  931   932     1
  932   933     1
  932   934     1
  932   949     1
  934   935     1
  934   947     1
  935   939     1
  935   945     1
  936   937     1
  936   938     1
  940   936     1
  940   939     1
  940   941     1
  941   942     1
  941   943     1
  943   944     1
  943   945     1
  945   946     1
  946   947     1
  947   948     1
  949   950     1
  949   951     1
  949   953     1
  951   952     1
  953   954     1
  953   955     1
  955   956     1
  956   957     1
  956   958     1
  956   959     1
  959   960     1
  960   961     1
  960   962     1
  960   963     1
  963   964     1
  963   965     1
  963   987     1
  965   966     1
  966   967     1
  966   968     1
  966   983     1
  968   969     1
  968   981     1
  969   973     1
  969   979     1
  970   971     1
  970   972     1
  974   970     1
  974   973     1
  974   975     1
  975   976     1
  975   977     1
  977   978     1
  977   979     1
  979   980     1
  980   981     1
  981   982     1
  983   984     1
  983   985     1
  983   987     1
  985   986     1
  987   988     1
  987   989     1
  989   990     1
  990   991     1
  990   992     1
  990   993     1
  993   994     1
  994   995     1
  994   996     1
  994   997     1
  997   998     1
  997   999     1
  997  1020     1
  999  1000     1
 1000  1001     1
 1000  1002     1
 1000  1016     1
 1002  1005     1
 1002  1011     1
 1003  1004     1
 1011  1003     1
 1012  1003     1
 1004  1005     1
 1005  1006     1
 1008  1007     1
 1007  1012     1
 1008  1009     1
 1008  1010     1
 1011  1010     1
 1012  1013     1
 1013  1014     1
 1013  1015     1
 1016  1017     1
 1016  1018     1
 1016  1020     1
 1018  1019     1
 1020  1021     1
 1020  1022     1
 1022  1023     1
 1023  1024     1
 1023  1025     1
 1023  1026     1
 1026  1027     1
 1027  1028     1
 1027  1029     1
 1027  1030     1
 1030  1031     1
 1030  1032     1
 1030  1054     1
 1032  1033     1
 1033  1034     1
 1033  1035     1
 1033  1050     1
 1035  1036     1
 1035  1048     1
 1036  1040     1
 1036  1046     1
 1037  1038     1
 1037  1039     1
 1041  1037     1
 1041  1040     1
 1041  1042     1
 1042  1043     1
 1042  1044     1
 1044  1045     1
 1044  1046     1
 1046  1047     1
 1047  1048     1
 1048  1049     1
 1050  1051     1
 1050  1052     1
 1050  1054     1
 1052  1053     1
 1054  1055     1
 1054  1056     1
 1056  1057     1
 1057  1058     1
 1057  1059     1
 1057  1060     1
 1060  1061     1
 1061  1062     1
 1061  1063     1
 1061  1064     1
 1064  1065     1
 1064  1066     1
 1064  1088     1
 1066  1067     1
 1067  1068     1
 1067  1069     1
 1067  1084     1
 1069  1070     1
 1069  1082     1
 1070  1074     1
 1070  1080     1
 1071  1072     1
 1071  1073     1
 1075  1071     1
 1075  1074     1
 1075  1076     1
 1076  1077     1
 1076  1078     1
 1078  1079     1
 1078  1080     1
 1080  1081     1
 1081  1082     1
 1082  1083     1
 1084  1085     1
 1084  1086     1
 1084  1088     1
 1086  1087     1
 1088  1089     1
 1088  1090     1
 1090  1091     1
 1091  1092     1
 1091  1093     1
 1091  1094     1
 1094  1095     1
 1095  1096     1
 1095  1097     1
 1095  1098     1
 1098  1099     1
 1098  1100     1
 1098  1119     1
 1100  1101     1
 1101  1102     1
 1101  1103     1
 1101  1115     1
 1103  1104     1
 1103  1108     1
 1104  1105     1
 1106  1104     1
 1106  1107     1
 1111  1106     1
 1108  1109     1
 1108  1110     1
 1110  1111     1
 1111  1112     1
 1112  1113     1
 1112  1114     1
 1115  1116     1
 1115  1117     1
 1115  1119     1
 1117  1118     1
 1119  1120     1
 1119  1121     1
 1121  1122     1
 1122  1123     1
 1122  1124     1
 1122  1125     1
 1125  1126     1
 1126  1127     1
 1126  1128     1
 1126  1129     1
 1129  1130     1
 1129  1131     1
 1129  1149     1
 1131  1132     1
 1132  1133     1
 1132  1134     1
 1132  1145     1
 1134  1135     1
 1134  1137     1
 1135  1136     1
 1143  1135     1
 1137  1138     1
 1137  1139     1
 1139  1140     1
 1139  1141     1
 1141  1142     1
 1141  1143     1
 1143  1144     1
 1145  1146     1
 1145  1147     1
 1145  1149     1
 1147  1148     1
 1149  1150     1
 1149  1151     1
 1151  1152     1
 1152  1153     1
 1152  1154     1
 1152  1155     1
 1155  1156     1
 1156  1157     1
 1156  1158     1
 1156  1159     1
 1159  1160     1
 1159  1161     1
 1159  1183     1
 1161  1162     1
 1162  1163     1
 1162  1164     1
 1162  1179     1
 1164  1165     1
 1164  1177     1
 1165  1169     1
 1165  1175     1
 1166  1167     1
 1166  1168     1
 1170  1166     1
 1170  1169     1
 1170  1171     1
 1171  1172     1
 1171  1173     1
 1173  1174     1
 1173  1175     1
 1175  1176     1
 1176  1177     1
 1177  1178     1
 1179  1180     1
 1179  1181     1
 1179  1183     1
 1181  1182     1
 1183  1184     1
 1183  1185     1
 1185  1186     1
 1186  1187     1
 1186  1188     1
 1186  1189     1
 1189  1190     1
 1190  1191     1
 1190  1192     1
 1190  1193     1
 1193  1194     1
 1193  1195     1
 1193  1216     1
 1195  1196     1
 1196  1197     1
 1196  1198     1
 1196  1212     1
 1198  1201     1
 1198  1207     1
 1199  1200     1
 1207  1199     1
 1208  1199     1
 1200  1201     1
 1201  1202     1
 1204  1203     1
 1203  1208     1
 1204  1205     1
 1204  1206     1
 1207  1206     1
 1208  1209     1
 1209  1210     1
 1209  1211     1
 1212  1213     1
 1212  1214     1
 1212  1216     1
 1214  1215     1
 1216  1217     1
 1216  1218     1
 1218  1219     1
 1219  1220     1
 1219  1221     1
 1219  1222     1
 1222  1223     1
 1223  1224     1
 1223  1225     1
 1223  1226     1
 1226  1227     1
 1226  1228     1
 1226  1250     1
 1228  1229     1
 1229  1230     1
 1229  1231     1
 1229  1246     1
 1231  1232     1
 1231  1244     1
 1232  1236     1
 1232  1242     1
 1233  1234     1
 1233  1235     1
 1237  1233     1
 1237  1236     1
 1237  1238     1
 1238  1239     1
 1238  1240     1
 1240  1241     1
 1240  1242     1
 1242  1243     1
 1243  1244     1
 1244  1245     1
 1246  1247     1
 1246  1248     1
 1246  1250     1
 1248  1249     1
 1250  1251     1
 1250  1252     1
 1252  1253     1
 1253  1254     1
 1253  1255     1
 1253  1256     1
 1256  1257     1
 1257  1258     1
 1257  1259     1
 1257  1260     1
 1260  1261     1
 1260  1262     1
 1260  1283     1
 1262  1263     1
 1263  1264     1
 1263  1265     1
 1263  1279     1
 1265  1268     1
 1265  1274     1
 1266  1267     1
 1274  1266     1
 1275  1266     1
 1267  1268     1
 1268  1269     1
 1271  1270     1
 1270  1275     1
 1271  1272     1
 1271  1273     1
 1274  1273     1
 1275  1276     1
 1276  1277     1
 1276  1278     1
 1279  1280     1
 1279  1281     1
 1279  1283     1
 1281  1282     1
 1283  1284     1
 1283  1285     1
 1285  1286     1
 1286  1287     1
 1286  1288     1
 1286  1289     1
 1289  1290     1
 1290  1291     1
 1290  1292     1
 1290  1293     1
 1293  1294     1
 1293  1295     1
 1293  1316     1
 1295  1296     1
 1296  1297     1
 1296  1298     1
 1296  1312     1
 1298  1301     1
 1298  1307     1
 1299  1300     1
 1307  1299     1
 1308  1299     1
 1300  1301     1
 1301  1302     1
 1304  1303     1
 1303  1308     1
 1304  1305     1
 1304  1306     1
 1307  1306     1
 1308  1309     1
 1309  1310     1
 1309  1311     1
 1312  1313     1
 1312  1314     1
 1312  1316     1
 1314  1315     1
 1316  1317     1
 1316  1318     1
 1318  1319     1
 1319  1320     1
 1319  1321     1
 1319  1322     1
 1322  1323     1
 1323  1324     1
 1323  1325     1
 1323  1326     1
 1326  1327     1
 1326  1328     1
 1326  1349     1
 1328  1329     1
 1329  1330     1
 1329  1331     1
 1329  1345     1
 1331  1334     1
 1331  1340     1
 1332  1333     1
 1340  1332     1
 1341  1332     1
 1333  1334     1
 1334  1335     1
 1337  1336     1
 1336  1341     1
 1337  1338     1
 1337  1339     1
 1340  1339     1
 1341  1342     1
 1342  1343     1
 1342  1344     1
 1345  1346     1
 1345  1347     1
 1345  1349     1
 1347  1348     1
 1349  1350     1
 1349  1351     1
 1351  1352     1
 1352  1353     1
 1352  1354     1
 1352  1355     1
 1355  1356     1
 1356  1357     1
 1356  1358     1
 1356  1359     1
 1359  1360     1
 1359  1361     1
 1359  1379     1
 1361  1362     1
 1362  1363     1
 1362  1364     1
 1362  1375     1
 1364  1365     1
 1364  1367     1
 1365  1366     1
 1373  1365     1
 1367  1368     1
 1367  1369     1
 1369  1370     1
 1369  1371     1
 1371  1372     1
 1371  1373     1
 1373  1374     1
 1375  1376     1
 1375  1377     1
 1375  1379     1
 1377  1378     1
 1379  1380     1
 1379  1381     1
 1381  1382     1
 1382  1383     1
 1382  1384     1
 1382  1385     1
 1385  1386     1
 1386  1387     1
 1386  1388     1
 1386  1389     1
 1389  1390     1
 1389  1391     1
 1389  1412     1
 1391  1392     1
 1392  1393     1
 1392  1394     1
 1392  1408     1
 1394  1397     1
 1394  1403     1
 1395  1396     1
 1403  1395     1
 1404  1395     1
 1396  1397     1
 1397  1398     1
 1400  1399     1
 1399  1404     1
 1400  1401     1
 1400  1402     1
 1403  1402     1
 1404  1405     1
 1405  1406     1
 1405  1407     1
 1408  1409     1
 1408  1410     1
 1408  1412     1
 1410  1411     1
 1412  1413     1
 1412  1414     1
 1414  1415     1
 1415  1416     1
 1415  1417     1
 1415  1418     1
 1418  1419     1
 1419  1420     1
 1419  1421     1
 1419  1422     1
 1422  1423     1
 1422  1424     1
 1422  1443     1
 1424  1425     1
 1425  1426     1
 1425  1427     1
 1425  1439     1
 1427  1428     1
 1427  1432     1
 1428  1429     1
 1430  1428     1
 1430  1431     1
 1435  1430     1
 1432  1433     1
 1432  1434     1
 1434  1435     1
 1435  1436     1
 1436  1437     1
 1436  1438     1
 1439  1440     1
 1439  1441     1
 1439  1443     1
 1441  1442     1
 1443  1444     1
 1443  1445     1
 1445  1446     1
 1446  1447     1
 1446  1448     1
 1446  1449     1
 1449  1450     1
 1450  1451     1
 1450  1452     1
 1450  1453     1
 1453  1454     1
 1453  1455     1
 1453  1474     1
 1455  1456     1
 1456  1457     1
 1456  1458     1
 1456  1470     1
 1458  1459     1
 1458  1463     1
 1459  1460     1
 1461  1459     1
 1461  1462     1
 1466  1461     1
 1463  1464     1
 1463  1465     1
 1465  1466     1
 1466  1467     1
 1467  1468     1
 1467  1469     1
 1470  1471     1
 1470  1472     1
 1470  1474     1
 1472  1473     1
 1474  1475     1
 1474  1476     1
 1476  1477     1
 1477  1478     1
 1477  1479     1
 1477  1480     1
 1480  1481     1
 1481  1482     1
 1481  1483     1
 1481  1484     1
 1484  1485     1
 1484  1486     1
 1484  1505     1
 1486  1487     1
 1487  1488     1
 1487  1489     1
 1487  1501     1
 1489  1490     1
 1489  1494     1
 1490  1491     1
 1492  1490     1
 1492  1493     1
 1497  1492     1
 1494  1495     1
 1494  1496     1
 1496  1497     1
 1497  1498     1
 1498  1499     1
 1498  1500     1
 1501  1502     1
 1501  1503     1
 1501  1505     1
 1503  1504     1
 1505  1506     1
 1505  1507     1
 1507  1508     1
 1508  1509     1
 1508  1510     1
 1508  1511     1
 1511  1512     1
 1512  1513     1
 1512  1514     1
 1512  1515     1
 1515  1516     1
 1515  1517     1
 1515  1539     1
 1517  1518     1
 1518  1519     1
 1518  1520     1
 1518  1535     1
 1520  1521     1
 1520  1533     1
 1521  1525     1
 1521  1531     1
 1522  1523     1
 1522  1524     1
 1526  1522     1
 1526  1525     1
 1526  1527     1
 1527  1528     1
 1527  1529     1
 1529  1530     1
 1529  1531     1
 1531  1532     1
 1532  1533     1
 1533  1534     1
 1535  1536     1
 1535  1537     1
 1535  1539     1
 1537  1538     1
 1539  1540     1
 1539  1541     1
 1541  1542     1
 1542  1543     1
 1542  1544     1
 1542  1545     1
 1545  1546     1
 1546  1547     1
 1546  1548     1
 1546  1549     1
 1549  1550     1
 1549  1551     1
 1549  1569     1
 1551  1552     1
 1552  1553     1
 1552  1554     1
 1552  1565     1
 1554  1555     1
 1554  1557     1
 1555  1556     1
 1563  1555     1
 1557  1558     1
 1557  1559     1
 1559  1560     1
 1559  1561     1
 1561  1562     1
 1561  1563     1
 1563  1564     1
 1565  1566     1
 1565  1567     1
 1565  1569     1
 1567  1568     1
 1569  1570     1
 1569  1571     1
 1571  1572     1
 1572  1573     1
 1572  1574     1
 1572  1575     1
 1575  1576     1
 1576  1577     1
 1576  1578     1
 1576  1579     1
 1579  1580     1
 1579  1581     1
 1579  1602     1
 1581  1582     1
 1582  1583     1
 1582  1584     1
 1582  1598     1
 1584  1587     1
 1584  1593     1
 1585  1586     1
 1593  1585     1
 1594  1585     1
 1586  1587     1
 1587  1588     1
 1590  1589     1
 1589  1594     1
 1590  1591     1
 1590  1592     1
 1593  1592     1
 1594  1595     1
 1595  1596     1
 1595  1597     1
 1598  1599     1
 1598  1600     1
 1598  1602     1
 1600  1601     1
 1602  1603     1
 1602  1604     1
 1604  1605     1
 1605  1606     1
 1605  1607     1
 1605  1608     1
 1608  1609     1
 1609  1610     1
 1609  1611     1
 1609  1612     1
 1612  1613     1
 1612  1614     1
 1612  1632     1
 1614  1615     1
 1615  1616     1
 1615  1617     1
 1615  1628     1
 1617  1618     1
 1617  1620     1
 1618  1619     1
 1626  1618     1
 1620  1621     1
 1620  1622     1
 1622  1623     1
 1622  1624     1
 1624  1625     1
 1624  1626     1
 1626  1627     1
 1628  1629     1
 1628  1630     1
 1628  1632     1
 1630  1631     1
 1632  1633     1
 1632  1634     1
 1634  1635     1
 1635  1636     1
 1635  1637     1
 1635  1638     1
 1638  1639     1
 1639  1640     1
 1639  1641     1
 1639  1642     1
 1642  1643     1
 1642  1644     1
 1642  1663     1
 1644  1645     1
 1645  1646     1
 1645  1647     1
 1645  1659     1
 1647  1648     1
 1647  1652     1
 1648  1649     1
 1650  1648     1
 1650  1651     1
 1655  1650     1
 1652  1653     1
 1652  1654     1
 1654  1655     1
 1655  1656     1
 1656  1657     1
 1656  1658     1
 1659  1660     1
 1659  1661     1
 1659  1663     1
 1661  1662     1
 1663  1664     1
 1663  1665     1
 1665  1666     1
 1666  1667     1
 1666  1668     1
 1666  1669     1
 1669  1670     1
 1670  1671     1
 1670  1672     1
 1670  1673     1
 1673  1674     1
 1673  1675     1
 1673  1696     1
 1675  1676     1
 1676  1677     1
 1676  1678     1
 1676  1692     1
 1678  1681     1
 1678  1687     1
 1679  1680     1
 1687  1679     1
 1688  1679     1
 1680  1681     1
 1681  1682     1
 1684  1683     1
 1683  1688     1
 1684  1685     1
 1684  1686     1
 1687  1686     1
 1688  1689     1
 1689  1690     1
 1689  1691     1
 1692  1693     1
 1692  1694     1
 1692  1696     1
 1694  1695     1
 1696  1697     1
 1696  1698     1
 1698  1699     1
 1699  1700     1
 1699  1701     1
 1699  1702     1
 1702  1703     1
 1703  1704     1
 1703  1705     1
 1703  1706     1
 1706  1707     1
 1706  1708     1
 1706  1727     1
 1708  1709     1
 1709  1710     1
 1709  1711     1
 1709  1723     1
 1711  1712     1
 1711  1716     1
 1712  1713     1
 1714  1712     1
 1714  1715     1
 1719  1714     1
 1716  1717     1
 1716  1718     1
 1718  1719     1
 1719  1720     1
 1720  1721     1
 1720  1722     1
 1723  1724     1
 1723  1725     1
 1723  1727     1
 1725  1726     1
 1727  1728     1
 1727  1729     1
 1729  1730     1
 1730  1731     1
 1730  1732     1
 1730  1733     1
 1733  1734     1
 1734  1735     1
 1734  1736     1
 1734  1737     1
 1737  1738     1
 1737  1739     1
 1737  1758     1
 1739  1740     1
 1740  1741     1
 1740  1742     1
 1740  1754     1
 1742  1743     1
 1742  1747     1
 1743  1744     1
 1745  1743     1
 1745  1746     1
 1750  1745     1
 1747  1748     1
 1747  1749     1
 1749  1750     1
 1750  1751     1
 1751  1752     1
 1751  1753     1
 1754  1755     1
 1754  1756     1
 1754  1758     1
 1756  1757     1
 1758  1759     1
 1758  1760     1
 1760  1761     1
 1761  1762     1
 1761  1763     1
 1761  1764     1
 1764  1765     1
 1765  1766     1
 1765  1767     1
 1765  1768     1
 1768  1769     1
 1768  1770     1
 1768  1788     1
 1770  1771     1
 1771  1772     1
 1771  1773     1
 1771  1784     1
 1773  1774     1
 1773  1776     1
 1774  1775     1
 1782  1774     1
 1776  1777     1
 1776  1778     1
 1778  1779     1
 1778  1780     1
 1780  1781     1
 1780  1782     1
 1782  1783     1
 1784  1785     1
 1784  1786     1
 1784  1788     1
 1786  1787     1
 1788  1789     1
 1788  1790     1
 1790  1791     1
 1791  1792     1
 1791  1793     1
 1791  1794     1
 1794  1795     1
 1795  1796     1
 1795  1797     1
 1795  1798     1
 1798  1799     1
 1798  1800     1
 1798  1822     1
 1800  1801     1
 1801  1802     1
 1801  1803     1
 1801  1818     1
 1803  1804     1
 1803  1816     1
 1804  1808     1
 1804  1814     1
 1805  1806     1
 1805  1807     1
 1809  1805     1
 1809  1808     1
 1809  1810     1
 1810  1811     1
 1810  1812     1
 1812  1813     1
 1812  1814     1
 1814  1815     1
 1815  1816     1
 1816  1817     1
 1818  1819     1
 1818  1820     1
 1818  1822     1
 1820  1821     1
 1822  1823     1
 1822  1824     1
 1824  1825     1
 1825  1826     1
 1825  1827     1
 1825  1828     1
 1828  1829     1
 1829  1830     1
 1829  1831     1
 1829  1832     1
 1832  1833     1
 1832  1834     1
 1832  1855     1
 1834  1835     1
 1835  1836     1
 1835  1837     1
 1835  1851     1
 1837  1840     1
 1837  1846     1
 1838  1839     1
 1846  1838     1
 1847  1838     1
 1839  1840     1
 1840  1841     1
 1843  1842     1
 1842  1847     1
 1843  1844     1
 1843  1845     1
 1846  1845     1
 1847  1848     1
 1848  1849     1
 1848  1850     1
 1851  1852     1
 1851  1853     1
 1851  1855     1
 1853  1854     1
 1855  1856     1
 1855  1857     1
 1857  1858     1
 1858  1859     1
 1858  1860     1
 1858  1861     1
 1861  1862     1
 1862  1863     1
 1862  1864     1
 1862  1865     1
 1865  1866     1
 1865  1867     1
 1865  1885     1
 1867  1868     1
 1868  1869     1
 1868  1870     1
 1868  1881     1
 1870  1871     1
 1870  1873     1
 1871  1872     1
 1879  1871     1
 1873  1874     1
 1873  1875     1
 1875  1876     1
 1875  1877     1
 1877  1878     1
 1877  1879     1
 1879  1880     1
 1881  1882     1
 1881  1883     1
 1881  1885     1
 1883  1884     1
 1885  1886     1
 1885  1887     1
 1887  1888     1
 1888  1889     1
 1888  1890     1
 1888  1891     1
 1891  1892     1
 1892  1893     1
 1892  1894     1
 1892  1895     1
 1895  1896     1
 1895  1897     1
 1895  1916     1
 1897  1898     1
 1898  1899     1
 1898  1900     1
 1898  1912     1
 1900  1901     1
 1900  1905     1
 1901  1902     1
 1903  1901     1
 1903  1904     1
 1908  1903     1
 1905  1906     1
 1905  1907     1
 1907  1908     1
 1908  1909     1
 1909  1910     1
 1909  1911     1
 1912  1913     1
 1912  1914     1
 1912  1916     1
 1914  1915     1
 1916  1917     1
 1916  1918     1
 1918  1919     1
 1919  1920     1
 1919  1921     1
 1919  1922     1
 1922  1923     1
 1923  1924     1
 1923  1925     1
 1923  1926     1
 1926  1927     1
 1926  1928     1
 1926  1946     1
 1928  1929     1
 1929  1930     1
 1929  1931     1
 1929  1942     1
 1931  1932     1
 1931  1934     1
 1932  1933     1
 1940  1932     1
 1934  1935     1
 1934  1936     1
 1936  1937     1
 1936  1938     1
 1938  1939     1
 1938  1940     1
 1940  1941     1
 1942  1943     1
 1942  1944     1
 1942  1946     1
 1944  1945     1
 1946  1947     1
 1946  1948     1
 1948  1949     1
 1949  1950     1
 1949  1951     1
 1949  1952     1
 1952  1953     1
 1953  1954     1
 1953  1955     1
 1953  1956     1
 1956  1957     1
 1956  1958     1
 1956  1980     1
 1958  1959     1
 1959  1960     1
 1959  1961     1
 1959  1976     1
 1961  1962     1
 1961  1974     1
 1962  1966     1
 1962  1972     1
 1963  1964     1
 1963  1965     1
 1967  1963     1
 1967  1966     1
 1967  1968     1
 1968  1969     1
 1968  1970     1
 1970  1971     1
 1970  1972     1
 1972  1973     1
 1973  1974     1
 1974  1975     1
 1976  1977     1
 1976  1978     1
 1976  1980     1
 1978  1979     1
 1980  1981     1
 1980  1982     1
 1982  1983     1
 1983  1984     1
 1983  1985     1
 1983  1986     1
 1986  1987     1
 1987  1988     1
 1987  1989     1
 1987  1990     1
 1990  1991     1
 1990  1992     1
 1990  2014     1
 1992  1993     1
 1993  1994     1
 1993  1995     1
 1993  2010     1
 1995  1996     1
 1995  2008     1
 1996  2000     1
 1996  2006     1
 1997  1998     1
 1997  1999     1
 2001  1997     1
 2001  2000     1
 2001  2002     1
 2002  2003     1
 2002  2004     1
 2004  2005     1
 2004  2006     1
 2006  2007     1
 2007  2008     1
 2008  2009     1
 2010  2011     1
 2010  2012     1
 2010  2014     1
 2012  2013     1
 2014  2015     1
 2014  2016     1
 2016  2017     1
 2017  2018     1
 2017  2019     1
 2017  2020     1
 2020  2021     1
 2021  2022     1
 2021  2023     1
 2021  2024     1
 2024  2025     1
 2024  2026     1
 2024  2047     1
 2026  2027     1
 2027  2028     1
 2027  2029     1
 2027  2043     1
 2029  2032     1
 2029  2038     1
 2030  2031     1
 2038  2030     1
 2039  2030     1
 2031  2032     1
 2032  2033     1
 2035  2034     1
 2034  2039     1
 2035  2036     1
 2035  2037     1
 2038  2037     1
 2039  2040     1
 2040  2041     1
 2040  2042     1
 2043  2044     1
 2043  2045     1
 2043  2047     1
 2045  2046     1
 2047  2048     1
 2047  2049     1
 2049  2050     1
 2050  2051     1
 2050  2052     1
 2050  2053     1
 2053  2054     1
 2054  2055     1
 2054  2056     1
 2054  2057     1
 2057  2058     1
 2057  2059     1
 2057  2077     1
 2059  2060     1
 2060  2061     1
 2060  2062     1
 2060  2073     1
 2062  2063     1
 2062  2065     1
 2063  2064     1
 2071  2063     1
 2065  2066     1
 2065  2067     1
 2067  2068     1
 2067  2069     1
 2069  2070     1
 2069  2071     1
 2071  2072     1
 2073  2074     1
 2073  2075     1
 2073  2077     1
 2075  2076     1
 2077  2078     1
 2077  2079     1
 2079  2080     1
 2080  2081     1
 2080  2082     1
 2080  2083     1
 2083  2084     1
 2084  2085     1
 2084  2086     1
 2084  2087     1
 2087  2088     1
 2087  2089     1
 2087  2110     1
 2089  2090     1
 2090  2091     1
 2090  2092     1
 2090  2106     1
 2092  2095     1
 2092  2101     1
 2093  2094     1
 2101  2093     1
 2102  2093     1
 2094  2095     1
 2095  2096     1
 2098  2097     1
 2097  2102     1
 2098  2099     1
 2098  2100     1
 2101  2100     1
 2102  2103     1
 2103  2104     1
 2103  2105     1
 2106  2107     1
 2106  2108     1
 2106  2110     1
 2108  2109     1
 2110  2111     1
 2110  2112     1
 2112  2113     1
 2113  2114     1
 2113  2115     1
 2113  2116     1
 2116  2117     1
 2117  2118     1
 2117  2119     1
 2117  2120     1
 2120  2121     1
 2120  2122     1
 2120  2143     1
 2122  2123     1
 2123  2124     1
 2123  2125     1
 2123  2139     1
 2125  2128     1
 2125  2134     1
 2126  2127     1
 2134  2126     1
 2135  2126     1
 2127  2128     1
 2128  2129     1
 2131  2130     1
 2130  2135     1
 2131  2132     1
 2131  2133     1
 2134  2133     1
 2135  2136     1
 2136  2137     1
 2136  2138     1
 2139  2140     1
 2139  2141     1
 2139  2143     1
 2141  2142     1
 2143  2144     1
 2143  2145     1
 2145  2146     1
 2146  2147     1
 2146  2148     1
 2146  2149     1
 2149  2150     1
 2150  2151     1
 2150  2152     1
 2150  2153     1
 2153  2154     1
 2153  2155     1
 2153  2173     1
 2155  2156     1
 2156  2157     1
 2156  2158     1
 2156  2169     1
 2158  2159     1
 2158  2161     1
 2159  2160     1
 2167  2159     1
 2161  2162     1
 2161  2163     1
 2163  2164     1
 2163  2165     1
 2165  2166     1
 2165  2167     1
 2167  2168     1
 2169  2170     1
 2169  2171     1
 2169  2173     1
 2171  2172     1
 2173  2174     1
 2173  2175     1
 2175  2176     1
 2176  2177     1
 2176  2178     1
 2176  2179     1
 2179  2180     1
 2180  2181     1
 2180  2182     1
 2180  2183     1
 2183  2184     1
 2183  2185     1
 2183  2207     1
 2185  2186     1
 2186  2187     1
 2186  2188     1
 2186  2203     1
 2188  2189     1
 2188  2201     1
 2189  2193     1
 2189  2199     1
 2190  2191     1
 2190  2192     1
 2194  2190     1
 2194  2193     1
 2194  2195     1
 2195  2196     1
 2195  2197     1
 2197  2198     1
 2197  2199     1
 2199  2200     1
 2200  2201     1
 2201  2202     1
 2203  2204     1
 2203  2205     1
 2203  2207     1
 2205  2206     1
 2207  2208     1
 2207  2209     1
 2209  2210     1
 2210  2211     1
 2210  2212     1
 2210  2213     1
 2213  2214     1
 2214  2215     1
 2214  2216     1
 2214  2217     1
 2217  2218     1
 2217  2219     1
 2217  2238     1
 2219  2220     1
 2220  2221     1
 2220  2222     1
 2220  2234     1
 2222  2223     1
 2222  2227     1
 2223  2224     1
 2225  2223     1
 2225  2226     1
 2230  2225     1
 2227  2228     1
 2227  2229     1
 2229  2230     1
 2230  2231     1
 2231  2232     1
 2231  2233     1
 2234  2235     1
 2234  2236     1
 2234  2238     1
 2236  2237     1
 2238  2239     1
 2238  2240     1
 2240  2241     1
 2241  2242     1
 2241  2243     1
 2241  2244     1
 2244  2245     1
 2245  2246     1
 2245  2247     1
 2245  2248     1
 2248  2249     1
 2248  2250     1
 2248  2269     1
 2250  2251     1
 2251  2252     1
 2251  2253     1
 2251  2265     1
 2253  2254     1
 2253  2258     1
 2254  2255     1
 2256  2254     1
 2256  2257     1
 2261  2256     1
 2258  2259     1
 2258  2260     1
 2260  2261     1
 2261  2262     1
 2262  2263     1
 2262  2264     1
 2265  2266     1
 2265  2267     1
 2265  2269     1
 2267  2268     1
 2269  2270     1
 2269  2271     1
 2271  2272     1
 2272  2273     1
 2272  2274     1
 2272  2275     1
 2275  2276     1
 2276  2277     1
 2276  2278     1
 2276  2279     1
 2279  2280     1
 2279  2281     1
 2279  2302     1
 2281  2282     1
 2282  2283     1
 2282  2284     1
 2282  2298     1
 2284  2287     1
 2284  2293     1
 2285  2286     1
 2293  2285     1
 2294  2285     1
 2286  2287     1
 2287  2288     1
 2290  2289     1
 2289  2294     1
 2290  2291     1
 2290  2292     1
 2293  2292     1
 2294  2295     1
 2295  2296     1
 2295  2297     1
 2298  2299     1
 2298  2300     1
 2298  2302     1
 2300  2301     1
 2302  2303     1
 2302  2304     1
 2304  2305     1
 2305  2306     1
 2305  2307     1
 2305  2308     1
 2308  2309     1
 2309  2310     1
 2309  2311     1
 2309  2312     1
 2312  2313     1
 2312  2314     1
 2312  2336     1
 2314  2315     1
 2315  2316     1
 2315  2317     1
 2315  2332     1
 2317  2318     1
 2317  2330     1
 2318  2322     1
 2318  2328     1
 2319  2320     1
 2319  2321     1
 2323  2319     1
 2323  2322     1
 2323  2324     1
 2324  2325     1
 2324  2326     1
 2326  2327     1
 2326  2328     1
 2328  2329     1
 2329  2330     1
 2330  2331     1
 2332  2333     1
 2332  2334     1
 2332  2336     1
 2334  2335     1
 2336  2337     1
 2336  2338     1
 2338  2339     1
 2339  2340     1
 2339  2341     1
 2339  2342     1
 2342  2343     1
 2343  2344     1
 2343  2345     1
 2343  2346     1
 2346  2347     1
 2346  2348     1
 2346  2367     1
 2348  2349     1
 2349  2350     1
 2349  2351     1
 2349  2363     1
 2351  2352     1
 2351  2356     1
 2352  2353     1
 2354  2352     1
 2354  2355     1
 2359  2354     1
 2356  2357     1
 2356  2358     1
 2358  2359     1
 2359  2360     1
 2360  2361     1
 2360  2362     1
 2363  2364     1
 2363  2365     1
 2363  2367     1
 2365  2366     1
 2367  2368     1
 2367  2369     1
 2369  2370     1
 2370  2371     1
 2370  2372     1
 2370  2373     1
 2373  2374     1
 2374  2375     1
 2374  2376     1
 2374  2377     1
 2377  2378     1
 2377  2379     1
 2377  2401     1
 2379  2380     1
 2380  2381     1
 2380  2382     1
 2380  2397     1
 2382  2383     1
 2382  2395     1
 2383  2387     1
 2383  2393     1
 2384  2385     1
 2384  2386     1
 2388  2384     1
 2388  2387     1
 2388  2389     1
 2389  2390     1
 2389  2391     1
 2391  2392     1
 2391  2393     1
 2393  2394     1
 2394  2395     1
 2395  2396     1
 2397  2398     1
 2397  2399     1
 2397  2401     1
 2399  2400     1
 2401  2402     1
 2401  2403     1
 2403  2404     1
 2404  2405     1
 2404  2406     1
 2404  2407     1
 2407  2408     1
 2408  2409     1
 2408  2410     1
 2408  2411     1
 2411  2412     1
 2411  2413     1
 2411  2431     1
 2413  2414     1
 2414  2415     1
 2414  2416     1
 2414  2427     1
 2416  2417     1
 2416  2419     1
 2417  2418     1
 2425  2417     1
 2419  2420     1
 2419  2421     1
 2421  2422     1
 2421  2423     1
 2423  2424     1
 2423  2425     1
 2425  2426     1
 2427  2428     1
 2427  2429     1
 2427  2431     1
 2429  2430     1
 2431  2432     1
 2431  2433     1
 2433  2434     1
 2434  2435     1
 2434  2436     1
 2434  2437     1
 2437  2438     1
 2438  2439     1
 2438  2440     1
 2438  2441     1
 2441  2442     1
 2441  2443     1
 2441  2464     1
 2443  2444     1
 2444  2445     1
 2444  2446     1
 2444  2460     1
 2446  2449     1
 2446  2455     1
 2447  2448     1
 2455  2447     1
 2456  2447     1
 2448  2449     1
 2449  2450     1
 2452  2451     1
 2451  2456     1
 2452  2453     1
 2452  2454     1
 2455  2454     1
 2456  2457     1
 2457  2458     1
 2457  2459     1
 2460  2461     1
 2460  2462     1
 2460  2464     1
 2462  2463     1
 2464  2465     1
 2464  2466     1
 2466  2467     1
 2467  2468     1
 2467  2469     1
 2467  2470     1
 2470  2471     1
 2471  2472     1
 2471  2473     1
 2471  2474     1
 2474  2475     1
 2474  2476     1
 2474  2498     1
 2476  2477     1
 2477  2478     1
 2477  2479     1
 2477  2494     1
 2479  2480     1
 2479  2492     1
 2480  2484     1
 2480  2490     1
 2481  2482     1
 2481  2483     1
 2485  2481     1
 2485  2484     1
 2485  2486     1
 2486  2487     1
 2486  2488     1
 2488  2489     1
 2488  2490     1
 2490  2491     1
 2491  2492     1
 2492  2493     1
 2494  2495     1
 2494  2496     1
 2494  2498     1
 2496  2497     1
 2498  2499     1
 2498  2500     1
 2500  2501     1
 2501  2502     1
 2501  2503     1
 2501  2504     1
 2504  2505     1
 2505  2506     1
 2505  2507     1
 2505  2508     1
 2508  2509     1
 2508  2510     1
 2508  2532     1
 2510  2511     1
 2511  2512     1
 2511  2513     1
 2511  2528     1
 2513  2514     1
 2513  2526     1
 2514  2518     1
 2514  2524     1
 2515  2516     1
 2515  2517     1
 2519  2515     1
 2519  2518     1
 2519  2520     1
 2520  2521     1
 2520  2522     1
 2522  2523     1
 2522  2524     1
 2524  2525     1
 2525  2526     1
 2526  2527     1
 2528  2529     1
 2528  2530     1
 2528  2532     1
 2530  2531     1
 2532  2533     1
 2532  2534     1
 2534  2535     1
 2535  2536     1
 2535  2537     1
 2535  2538     1
 2538  2539     1
 2539  2540     1
 2539  2541     1
 2539  2542     1
 2542  2543     1
 2542  2544     1
 2542  2566     1
 2544  2545     1
 2545  2546     1
 2545  2547     1
 2545  2562     1
 2547  2548     1
 2547  2560     1
 2548  2552     1
 2548  2558     1
 2549  2550     1
 2549  2551     1
 2553  2549     1
 2553  2552     1
 2553  2554     1
 2554  2555     1
 2554  2556     1
 2556  2557     1
 2556  2558     1
 2558  2559     1
 2559  2560     1
 2560  2561     1
 2562  2563     1
 2562  2564     1
 2562  2566     1
 2564  2565     1
 2566  2567     1
 2566  2568     1
 2568  2569     1
 2569  2570     1
 2569  2571     1
 2569  2572     1
 2572  2573     1
 2573  2574     1
 2573  2575     1
 2573  2576     1
 2576  2577     1
 2576  2578     1
 2576  2599     1
 2578  2579     1
 2579  2580     1
 2579  2581     1
 2579  2595     1
 2581  2584     1
 2581  2590     1
 2582  2583     1
 2590  2582     1
 2591  2582     1
 2583  2584     1
 2584  2585     1
 2587  2586     1
 2586  2591     1
 2587  2588     1
 2587  2589     1
 2590  2589     1
 2591  2592     1
 2592  2593     1
 2592  2594     1
 2595  2596     1
 2595  2597     1
 2595  2599     1
 2597  2598     1
 2599  2600     1
 2599  2601     1
 2601  2602     1
 2602  2603     1
 2602  2604     1
 2602  2605     1
 2605  2606     1
 2606  2607     1
 2606  2608     1
 2606  2609     1
 2609  2610     1
 2609  2611     1
 2609  2632     1
 2611  2612     1
 2612  2613     1
 2612  2614     1
 2612  2628     1
 2614  2617     1
 2614  2623     1
 2615  2616     1
 2623  2615     1
 2624  2615     1
 2616  2617     1
 2617  2618     1
 2620  2619     1
 2619  2624     1
 2620  2621     1
 2620  2622     1
 2623  2622     1
 2624  2625     1
 2625  2626     1
 2625  2627     1
 2628  2629     1
 2628  2630     1
 2628  2632     1
 2630  2631     1
 2632  2633     1
 2632  2634     1
 2634  2635     1
 2635  2636     1
 2635  2637     1
 2635  2638     1
 2638  2639     1
 2639  2640     1
 2639  2641     1
 2639  2642     1
 2642  2643     1
 2642  2644     1
 2642  2666     1
 2644  2645     1
 2645  2646     1
 2645  2647     1
 2645  2662     1
 2647  2648     1
 2647  2660     1
 2648  2652     1
 2648  2658     1
 2649  2650     1
 2649  2651     1
 2653  2649     1
 2653  2652     1
 2653  2654     1
 2654  2655     1
 2654  2656     1
 2656  2657     1
 2656  2658     1
 2658  2659     1
 2659  2660     1
 2660  2661     1
 2662  2663     1
 2662  2664     1
 2662  2666     1
 2664  2665     1
 2666  2667     1
 2666  2668     1
 2668  2669     1
 2669  2670     1
 2669  2671     1
 2669  2672     1
 2672  2673     1
 2673  2674     1
 2673  2675     1
 2673  2676     1
 2676  2677     1
 2676  2678     1
 2676  2696     1
 2678  2679     1
 2679  2680     1
 2679  2681     1
 2679  2692     1
 2681  2682     1
 2681  2684     1
 2682  2683     1
 2690  2682     1
 2684  2685     1
 2684  2686     1
 2686  2687     1
 2686  2688     1
 2688  2689     1
 2688  2690     1
 2690  2691     1
 2692  2693     1
 2692  2694     1
 2692  2696     1
 2694  2695     1
 2696  2697     1
 2696  2698     1
 2698  2699     1
 2699  2700     1
 2699  2701     1
 2699  2702     1
 2702  2703     1
 2703  2704     1
 2703  2705     1
 2703  2706     1
 2706  2707     1
 2706  2708     1
 2706  2727     1
 2708  2709     1
 2709  2710     1
 2709  2711     1
 2709  2723     1
 2711  2712     1
 2711  2716     1
 2712  2713     1
 2714  2712     1
 2714  2715     1
 2719  2714     1
 2716  2717     1
 2716  2718     1
 2718  2719     1
 2719  2720     1
 2720  2721     1
 2720  2722     1
 2723  2724     1
 2723  2725     1
 2723  2727     1
 2725  2726     1
 2727  2728     1
 2727  2729     1
 2729  2730     1
 2730  2731     1
 2730  2732     1
 2730  2733     1
 2733  2734     1
 2734  2735     1
 2734  2736     1
 2734  2737     1
 2737  2738     1
 2737  2739     1
 2737  2761     1
 2739  2740     1
 2740  2741     1
 2740  2742     1
 2740  2757     1
 2742  2743     1
 2742  2755     1
 2743  2747     1
 2743  2753     1
 2744  2745     1
 2744  2746     1
 2748  2744     1
 2748  2747     1
 2748  2749     1
 2749  2750     1
 2749  2751     1
 2751  2752     1
 2751  2753     1
 2753  2754     1
 2754  2755     1
 2755  2756     1
 2757  2758     1
 2757  2759     1
 2757  2761     1
 2759  2760     1
 2761  2762     1
 2761  2763     1
 2763  2764     1
 2764  2765     1
 2764  2766     1
 2764  2767     1
 2767  2768     1
 2768  2769     1
 2768  2770     1
 2768  2771     1
 2771  2772     1
 2771  2773     1
 2771  2792     1
 2773  2774     1
 2774  2775     1
 2774  2776     1
 2774  2788     1
 2776  2777     1
 2776  2781     1
 2777  2778     1
 2779  2777     1
 2779  2780     1
 2784  2779     1
 2781  2782     1
 2781  2783     1
 2783  2784     1
 2784  2785     1
 2785  2786     1
 2785  2787     1
 2788  2789     1
 2788  2790     1
 2788  2792     1
 2790  2791     1
 2792  2793     1
 2792  2794     1
 2794  2795     1

[ pairs ]
; ai	aj	funct	c6	c12 or
; ai	aj	funct	fudgeQQ	q1	q2	c6	c12
    1     4     1
    1     5     1
    1     6     1
    2     7     1
    2     8     1
    2    30     1
    3     9     1
    3    26     1
    3    31     1
    3    32     1
    4     7     1
    4     8     1
    4    30     1
    5     7     1
    5     8     1
    5    30     1
    6    10     1
    6    11     1
    6    27     1
    6    28     1
    6    33     1
    7     9     1
    7    26     1
    7    31     1
    7    32     1
    8    12     1
    8    24     1
    8    27     1
    8    28     1
    8    31     1
    8    32     1
    9    16     1
    9    22     1
    9    23     1
    9    25     1
    9    29     1
    9    31     1
    9    32     1
   10    12     1
   10    24     1
   10    27     1
   10    28     1
   10    30     1
   11    17     1
   11    20     1
   11    27     1
   11    28     1
   11    30     1
   12    13     1
   12    18     1
   12    21     1
   12    25     1
   12    26     1
   13    19     1
   13    20     1
   14    16     1
   14    18     1
   15    16     1
   15    18     1
   16    19     1
   16    20     1
   16    23     1
   16    24     1
   17    21     1
   17    22     1
   18    23     1
   19    21     1
   19    22     1
   20    24     1
   21    23     1
   22    25     1
   24    26     1
   26    33     1
   27    29     1
   27    31     1
   27    32     1
   28    31     1
   28    32     1
   29    30     1
   30    34     1
   30    35     1
   30    36     1
   31    33     1
   32    37     1
   33    38     1
   33    39     1
   33    40     1
   34    37     1
   35    37     1
   36    41     1
   36    42     1
   36    61     1
   37    43     1
   37    57     1
   37    62     1
   37    63     1
   38    41     1
   38    42     1
   38    61     1
   39    41     1
   39    42     1
   39    61     1
   40    44     1
   40    45     1
   40    58     1
   40    59     1
   40    64     1
   41    43     1
   41    57     1
   41    62     1
   41    63     1
   42    46     1
   42    50     1
   42    58     1
   42    59     1
   42    62     1
   42    63     1
   43    47     1
   43    48     1
   43    51     1
   43    52     1
   43    60     1
   43    62     1
   43    63     1
   44    46     1
   44    50     1
   44    58     1
   44    59     1
   44    61     1
   45    49     1
   45    53     1
   45    58     1
   45    59     1
   45    61     1
   46    51     1
   46    52     1
   46    54     1
   46    57     1
   47    49     1
   47    50     1
   47    53     1
   48    50     1
   48    55     1
   48    56     1
   49    52     1
   49    54     1
   50    54     1
   50    57     1
   51    53     1
   52    55     1
   52    56     1
   57    64     1
   58    60     1
   58    62     1
   58    63     1
   59    62     1
   59    63     1
   60    61     1
   61    65     1
   61    66     1
   61    67     1
   62    64     1
   63    68     1
   64    69     1
   64    70     1
   64    71     1
   65    68     1
   66    68     1
   67    72     1
   67    73     1
   67    95     1
   68    74     1
   68    91     1
   68    96     1
   68    97     1
   69    72     1
   69    73     1
   69    95     1
   70    72     1
   70    73     1
   70    95     1
   71    75     1
   71    76     1
   71    92     1
   71    93     1
   71    98     1
   72    74     1
   72    91     1
   72    96     1
   72    97     1
   73    77     1
   73    89     1
   73    92     1
   73    93     1
   73    96     1
   73    97     1
   74    81     1
   74    87     1
   74    88     1
   74    90     1
   74    94     1
   74    96     1
   74    97     1
   75    77     1
   75    89     1
   75    92     1
   75    93     1
   75    95     1
   76    82     1
   76    85     1
   76    92     1
   76    93     1
   76    95     1
   77    78     1
   77    83     1
   77    86     1
   77    90     1
   77    91     1
   78    84     1
   78    85     1
   79    81     1
   79    83     1
   80    81     1
   80    83     1
   81    84     1
   81    85     1
   81    88     1
   81    89     1
   82    86     1
   82    87     1
   83    88     1
   84    86     1
   84    87     1
   85    89     1
   86    88     1
   87    90     1
   89    91     1
   91    98     1
   92    94     1
   92    96     1
   92    97     1
   93    96     1
   93    97     1
   94    95     1
   95    99     1
   95   100     1
   95   101     1
   96    98     1
   97   102     1
   98   103     1
   98   104     1
   98   105     1
   99   102     1
  100   102     1
  101   106     1
  101   107     1
  101   128     1
  102   108     1
  102   124     1
  102   129     1
  102   130     1
  103   106     1
  103   107     1
  103   128     1
  104   106     1
  104   107     1
  104   128     1
  105   109     1
  105   110     1
  105   125     1
  105   126     1
  105   131     1
  106   108     1
  106   124     1
  106   129     1
  106   130     1
  107   113     1
  107   119     1
  107   125     1
  107   126     1
  107   129     1
  107   130     1
  108   111     1
  108   112     1
  108   114     1
  108   118     1
  108   127     1
  108   129     1
  108   130     1
  109   113     1
  109   119     1
  109   125     1
  109   126     1
  109   128     1
  110   116     1
  110   120     1
  110   125     1
  110   126     1
  110   128     1
  111   114     1
  111   116     1
  111   122     1
  111   123     1
  112   115     1
  112   118     1
  112   121     1
  113   118     1
  113   120     1
  113   124     1
  114   119     1
  115   119     1
  115   122     1
  115   123     1
  116   121     1
  117   119     1
  117   120     1
  118   120     1
  119   121     1
  119   124     1
  124   131     1
  125   127     1
  125   129     1
  125   130     1
  126   129     1
  126   130     1
  127   128     1
  128   132     1
  128   133     1
  128   134     1
  129   131     1
  130   135     1
  131   136     1
  131   137     1
  131   138     1
  132   135     1
  133   135     1
  134   139     1
  134   140     1
  134   159     1
  135   141     1
  135   155     1
  135   160     1
  135   161     1
  136   139     1
  136   140     1
  136   159     1
  137   139     1
  137   140     1
  137   159     1
  138   142     1
  138   143     1
  138   156     1
  138   157     1
  138   162     1
  139   141     1
  139   155     1
  139   160     1
  139   161     1
  140   144     1
  140   148     1
  140   156     1
  140   157     1
  140   160     1
  140   161     1
  141   145     1
  141   146     1
  141   149     1
  141   150     1
  141   158     1
  141   160     1
  141   161     1
  142   144     1
  142   148     1
  142   156     1
  142   157     1
  142   159     1
  143   147     1
  143   151     1
  143   156     1
  143   157     1
  143   159     1
  144   149     1
  144   150     1
  144   152     1
  144   155     1
  145   147     1
  145   148     1
  145   151     1
  146   148     1
  146   153     1
  146   154     1
  147   150     1
  147   152     1
  148   152     1
  148   155     1
  149   151     1
  150   153     1
  150   154     1
  155   162     1
  156   158     1
  156   160     1
  156   161     1
  157   160     1
  157   161     1
  158   159     1
  159   163     1
  159   164     1
  159   165     1
  160   162     1
  161   166     1
  162   167     1
  162   168     1
  162   169     1
  163   166     1
  164   166     1
  165   170     1
  165   171     1
  165   189     1
  166   172     1
  166   185     1
  166   190     1
  166   191     1
  167   170     1
  167   171     1
  167   189     1
  168   170     1
  168   171     1
  168   189     1
  169   173     1
  169   174     1
  169   186     1
  169   187     1
  169   192     1
  170   172     1
  170   185     1
  170   190     1
  170   191     1
  171   175     1
  171   177     1
  171   186     1
  171   187     1
  171   190     1
  171   191     1
  172   176     1
  172   178     1
  172   179     1
  172   183     1
  172   188     1
  172   190     1
  172   191     1
  173   175     1
  173   177     1
  173   186     1
  173   187     1
  173   189     1
  174   180     1
  174   181     1
  174   184     1
  174   186     1
  174   187     1
  174   189     1
  175   178     1
  175   179     1
  175   182     1
  175   185     1
  176   177     1
  176   181     1
  176   184     1
  177   182     1
  177   183     1
  177   185     1
  178   180     1
  178   181     1
  179   184     1
  180   182     1
  180   183     1
  182   184     1
  185   192     1
  186   188     1
  186   190     1
  186   191     1
  187   190     1
  187   191     1
  188   189     1
  189   193     1
  189   194     1
  189   195     1
  190   192     1
  191   196     1
  192   197     1
  192   198     1
  192   199     1
  193   196     1
  194   196     1
  195   200     1
  195   201     1
  195   220     1
  196   202     1
  196   216     1
  196   221     1
  196   222     1
  197   200     1
  197   201     1
  197   220     1
  198   200     1
  198   201     1
  198   220     1
  199   203     1
  199   204     1
  199   217     1
  199   218     1
  199   223     1
  200   202     1
  200   216     1
  200   221     1
  200   222     1
  201   205     1
  201   209     1
  201   217     1
  201   218     1
  201   221     1
  201   222     1
  202   206     1
  202   207     1
  202   210     1
  202   211     1
  202   219     1
  202   221     1
  202   222     1
  203   205     1
  203   209     1
  203   217     1
  203   218     1
  203   220     1
  204   208     1
  204   212     1
  204   217     1
  204   218     1
  204   220     1
  205   210     1
  205   211     1
  205   213     1
  205   216     1
  206   208     1
  206   209     1
  206   212     1
  207   209     1
  207   214     1
  207   215     1
  208   211     1
  208   213     1
  209   213     1
  209   216     1
  210   212     1
  211   214     1
  211   215     1
  216   223     1
  217   219     1
  217   221     1
  217   222     1
  218   221     1
  218   222     1
  219   220     1
  220   224     1
  220   225     1
  220   226     1
  221   223     1
  222   227     1
  223   228     1
  223   229     1
  223   230     1
  224   227     1
  225   227     1
  226   231     1
  226   232     1
  226   254     1
  227   233     1
  227   250     1
  227   255     1
  227   256     1
  228   231     1
  228   232     1
  228   254     1
  229   231     1
  229   232     1
  229   254     1
  230   234     1
  230   235     1
  230   251     1
  230   252     1
  230   257     1
  231   233     1
  231   250     1
  231   255     1
  231   256     1
  232   236     1
  232   248     1
  232   251     1
  232   252     1
  232   255     1
  232   256     1
  233   240     1
  233   246     1
  233   247     1
  233   249     1
  233   253     1
  233   255     1
  233   256     1
  234   236     1
  234   248     1
  234   251     1
  234   252     1
  234   254     1
  235   241     1
  235   244     1
  235   251     1
  235   252     1
  235   254     1
  236   237     1
  236   242     1
  236   245     1
  236   249     1
  236   250     1
  237   243     1
  237   244     1
  238   240     1
  238   242     1
  239   240     1
  239   242     1
  240   243     1
  240   244     1
  240   247     1
  240   248     1
  241   245     1
  241   246     1
  242   247     1
  243   245     1
  243   246     1
  244   248     1
  245   247     1
  246   249     1
  248   250     1
  250   257     1
  251   253     1
  251   255     1
  251   256     1
  252   255     1
  252   256     1
  253   254     1
  254   258     1
  254   259     1
  254   260     1
  255   257     1
  256   261     1
  257   262     1
  257   263     1
  257   264     1
  258   261     1
  259   261     1
  260   265     1
  260   266     1
  260   288     1
  261   267     1
  261   284     1
  261   289     1
  261   290     1
  262   265     1
  262   266     1
  262   288     1
  263   265     1
  263   266     1
  263   288     1
  264   268     1
  264   269     1
  264   285     1
  264   286     1
  264   291     1
  265   267     1
  265   284     1
  265   289     1
  265   290     1
  266   270     1
  266   282     1
  266   285     1
  266   286     1
  266   289     1
  266   290     1
  267   274     1
  267   280     1
  267   281     1
  267   283     1
  267   287     1
  267   289     1
  267   290     1
  268   270     1
  268   282     1
  268   285     1
  268   286     1
  268   288     1
  269   275     1
  269   278     1
  269   285     1
  269   286     1
  269   288     1
  270   271     1
  270   276     1
  270   279     1
  270   283     1
  270   284     1
  271   277     1
  271   278     1
  272   274     1
  272   276     1
  273   274     1
  273   276     1
  274   277     1
  274   278     1
  274   281     1
  274   282     1
  275   279     1
  275   280     1
  276   281     1
  277   279     1
  277   280     1
  278   282     1
  279   281     1
  280   283     1
  282   284     1
  284   291     1
  285   287     1
  285   289     1
  285   290     1
  286   289     1
  286   290     1
  287   288     1
  288   292     1
  288   293     1
  288   294     1
  289   291     1
  290   295     1
  291   296     1
  291   297     1
  291   298     1
  292   295     1
  293   295     1
  294   299     1
  294   300     1
  294   322     1
  295   301     1
  295   318     1
  295   323     1
  295   324     1
  296   299     1
  296   300     1
  296   322     1
  297   299     1
  297   300     1
  297   322     1
  298   302     1
  298   303     1
  298   319     1
  298   320     1
  298   325     1
  299   301     1
  299   318     1
  299   323     1
  299   324     1
  300   304     1
  300   316     1
  300   319     1
  300   320     1
  300   323     1
  300   324     1
  301   308     1
  301   314     1
  301   315     1
  301   317     1
  301   321     1
  301   323     1
  301   324     1
  302   304     1
  302   316     1
  302   319     1
  302   320     1
  302   322     1
  303   309     1
  303   312     1
  303   319     1
  303   320     1
  303   322     1
  304   305     1
  304   310     1
  304   313     1
  304   317     1
  304   318     1
  305   311     1
  305   312     1
  306   308     1
  306   310     1
  307   308     1
  307   310     1
  308   311     1
  308   312     1
  308   315     1
  308   316     1
  309   313     1
  309   314     1
  310   315     1
  311   313     1
  311   314     1
  312   316     1
  313   315     1
  314   317     1
  316   318     1
  318   325     1
  319   321     1
  319   323     1
  319   324     1
  320   323     1
  320   324     1
  321   322     1
  322   326     1
  322   327     1
  322   328     1
  323   325     1
  324   329     1
  325   330     1
  325   331     1
  325   332     1
  326   329     1
  327   329     1
  328   333     1
  328   334     1
  328   356     1
  329   335     1
  329   352     1
  329   357     1
  329   358     1
  330   333     1
  330   334     1
  330   356     1
  331   333     1
  331   334     1
  331   356     1
  332   336     1
  332   337     1
  332   353     1
  332   354     1
  332   359     1
  333   335     1
  333   352     1
  333   357     1
  333   358     1
  334   338     1
  334   350     1
  334   353     1
  334   354     1
  334   357     1
  334   358     1
  335   342     1
  335   348     1
  335   349     1
  335   351     1
  335   355     1
  335   357     1
  335   358     1
  336   338     1
  336   350     1
  336   353     1
  336   354     1
  336   356     1
  337   343     1
  337   346     1
  337   353     1
  337   354     1
  337   356     1
  338   339     1
  338   344     1
  338   347     1
  338   351     1
  338   352     1
  339   345     1
  339   346     1
  340   342     1
  340   344     1
  341   342     1
  341   344     1
  342   345     1
  342   346     1
  342   349     1
  342   350     1
  343   347     1
  343   348     1
  344   349     1
  345   347     1
  345   348     1
  346   350     1
  347   349     1
  348   351     1
  350   352     1
  352   359     1
  353   355     1
  353   357     1
  353   358     1
  354   357     1
  354   358     1
  355   356     1
  356   360     1
  356   361     1
  356   362     1
  357   359     1
  358   363     1
  359   364     1
  359   365     1
  359   366     1
  360   363     1
  361   363     1
  362   367     1
  362   368     1
  362   386     1
  363   369     1
  363   382     1
  363   387     1
  363   388     1
  364   367     1
  364   368     1
  364   386     1
  365   367     1
  365   368     1
  365   386     1
  366   370     1
  366   371     1
  366   383     1
  366   384     1
  366   389     1
  367   369     1
  367   382     1
  367   387     1
  367   388     1
  368   372     1
  368   374     1
  368   383     1
  368   384     1
  368   387     1
  368   388     1
  369   373     1
  369   375     1
  369   376     1
  369   380     1
  369   385     1
  369   387     1
  369   388     1
  370   372     1
  370   374     1
  370   383     1
  370   384     1
  370   386     1
  371   377     1
  371   378     1
  371   381     1
  371   383     1
  371   384     1
  371   386     1
  372   375     1
  372   376     1
  372   379     1
  372   382     1
  373   374     1
  373   378     1
  373   381     1
  374   379     1
  374   380     1
  374   382     1
  375   377     1
  375   378     1
  376   381     1
  377   379     1
  377   380     1
  379   381     1
  382   389     1
  383   385     1
  383   387     1
  383   388     1
  384   387     1
  384   388     1
  385   386     1
  386   390     1
  386   391     1
  386   392     1
  387   389     1
  388   393     1
  389   394     1
  389   395     1
  389   396     1
  390   393     1
  391   393     1
  392   397     1
  392   398     1
  392   420     1
  393   399     1
  393   416     1
  393   421     1
  393   422     1
  394   397     1
  394   398     1
  394   420     1
  395   397     1
  395   398     1
  395   420     1
  396   400     1
  396   401     1
  396   417     1
  396   418     1
  396   423     1
  397   399     1
  397   416     1
  397   421     1
  397   422     1
  398   402     1
  398   414     1
  398   417     1
  398   418     1
  398   421     1
  398   422     1
  399   406     1
  399   412     1
  399   413     1
  399   415     1
  399   419     1
  399   421     1
  399   422     1
  400   402     1
  400   414     1
  400   417     1
  400   418     1
  400   420     1
  401   407     1
  401   410     1
  401   417     1
  401   418     1
  401   420     1
  402   403     1
  402   408     1
  402   411     1
  402   415     1
  402   416     1
  403   409     1
  403   410     1
  404   406     1
  404   408     1
  405   406     1
  405   408     1
  406   409     1
  406   410     1
  406   413     1
  406   414     1
  407   411     1
  407   412     1
  408   413     1
  409   411     1
  409   412     1
  410   414     1
  411   413     1
  412   415     1
  414   416     1
  416   423     1
  417   419     1
  417   421     1
  417   422     1
  418   421     1
  418   422     1
  419   420     1
  420   424     1
  420   425     1
  420   426     1
  421   423     1
  422   427     1
  423   428     1
  423   429     1
  423   430     1
  424   427     1
  425   427     1
  426   431     1
  426   432     1
  426   451     1
  427   433     1
  427   447     1
  427   452     1
  427   453     1
  428   431     1
  428   432     1
  428   451     1
  429   431     1
  429   432     1
  429   451     1
  430   434     1
  430   435     1
  430   448     1
  430   449     1
  430   454     1
  431   433     1
  431   447     1
  431   452     1
  431   453     1
  432   436     1
  432   440     1
  432   448     1
  432   449     1
  432   452     1
  432   453     1
  433   437     1
  433   438     1
  433   441     1
  433   442     1
  433   450     1
  433   452     1
  433   453     1
  434   436     1
  434   440     1
  434   448     1
  434   449     1
  434   451     1
  435   439     1
  435   443     1
  435   448     1
  435   449     1
  435   451     1
  436   441     1
  436   442     1
  436   444     1
  436   447     1
  437   439     1
  437   440     1
  437   443     1
  438   440     1
  438   445     1
  438   446     1
  439   442     1
  439   444     1
  440   444     1
  440   447     1
  441   443     1
  442   445     1
  442   446     1
  447   454     1
  448   450     1
  448   452     1
  448   453     1
  449   452     1
  449   453     1
  450   451     1
  451   455     1
  451   456     1
  451   457     1
  452   454     1
  453   458     1
  454   459     1
  454   460     1
  454   461     1
  455   458     1
  456   458     1
  457   462     1
  457   463     1
  457   482     1
  458   464     1
  458   478     1
  458   483     1
  458   484     1
  459   462     1
  459   463     1
  459   482     1
  460   462     1
  460   463     1
  460   482     1
  461   465     1
  461   466     1
  461   479     1
  461   480     1
  461   485     1
  462   464     1
  462   478     1
  462   483     1
  462   484     1
  463   467     1
  463   471     1
  463   479     1
  463   480     1
  463   483     1
  463   484     1
  464   468     1
  464   469     1
  464   472     1
  464   473     1
  464   481     1
  464   483     1
  464   484     1
  465   467     1
  465   471     1
  465   479     1
  465   480     1
  465   482     1
  466   470     1
  466   474     1
  466   479     1
  466   480     1
  466   482     1
  467   472     1
  467   473     1
  467   475     1
  467   478     1
  468   470     1
  468   471     1
  468   474     1
  469   471     1
  469   476     1
  469   477     1
  470   473     1
  470   475     1
  471   475     1
  471   478     1
  472   474     1
  473   476     1
  473   477     1
  478   485     1
  479   481     1
  479   483     1
  479   484     1
  480   483     1
  480   484     1
  481   482     1
  482   486     1
  482   487     1
  482   488     1
  483   485     1
  484   489     1
  485   490     1
  485   491     1
  485   492     1
  486   489     1
  487   489     1
  488   493     1
  488   494     1
  488   513     1
  489   495     1
  489   509     1
  489   514     1
  489   515     1
  490   493     1
  490   494     1
  490   513     1
  491   493     1
  491   494     1
  491   513     1
  492   496     1
  492   497     1
  492   510     1
  492   511     1
  492   516     1
  493   495     1
  493   509     1
  493   514     1
  493   515     1
  494   498     1
  494   502     1
  494   510     1
  494   511     1
  494   514     1
  494   515     1
  495   499     1
  495   500     1
  495   503     1
  495   504     1
  495   512     1
  495   514     1
  495   515     1
  496   498     1
  496   502     1
  496   510     1
  496   511     1
  496   513     1
  497   501     1
  497   505     1
  497   510     1
  497   511     1
  497   513     1
  498   503     1
  498   504     1
  498   506     1
  498   509     1
  499   501     1
  499   502     1
  499   505     1
  500   502     1
  500   507     1
  500   508     1
  501   504     1
  501   506     1
  502   506     1
  502   509     1
  503   505     1
  504   507     1
  504   508     1
  509   516     1
  510   512     1
  510   514     1
  510   515     1
  511   514     1
  511   515     1
  512   513     1
  513   517     1
  513   518     1
  513   519     1
  514   516     1
  515   520     1
  516   521     1
  516   522     1
  516   523     1
  517   520     1
  518   520     1
  519   524     1
  519   525     1
  519   543     1
  520   526     1
  520   539     1
  520   544     1
  520   545     1
  521   524     1
  521   525     1
  521   543     1
  522   524     1
  522   525     1
  522   543     1
  523   527     1
  523   528     1
  523   540     1
  523   541     1
  523   546     1
  524   526     1
  524   539     1
  524   544     1
  524   545     1
  525   529     1
  525   531     1
  525   540     1
  525   541     1
  525   544     1
  525   545     1
  526   530     1
  526   532     1
  526   533     1
  526   537     1
  526   542     1
  526   544     1
  526   545     1
  527   529     1
  527   531     1
  527   540     1
  527   541     1
  527   543     1
  528   534     1
  528   535     1
  528   538     1
  528   540     1
  528   541     1
  528   543     1
  529   532     1
  529   533     1
  529   536     1
  529   539     1
  530   531     1
  530   535     1
  530   538     1
  531   536     1
  531   537     1
  531   539     1
  532   534     1
  532   535     1
  533   538     1
  534   536     1
  534   537     1
  536   538     1
  539   546     1
  540   542     1
  540   544     1
  540   545     1
  541   544     1
  541   545     1
  542   543     1
  543   547     1
  543   548     1
  543   549     1
  544   546     1
  545   550     1
  546   551     1
  546   552     1
  546   553     1
  547   550     1
  548   550     1
  549   554     1
  549   555     1
  549   574     1
  550   556     1
  550   570     1
  550   575     1
  550   576     1
  551   554     1
  551   555     1
  551   574     1
  552   554     1
  552   555     1
  552   574     1
  553   557     1
  553   558     1
  553   571     1
  553   572     1
  553   577     1
  554   556     1
  554   570     1
  554   575     1
  554   576     1
  555   559     1
  555   563     1
  555   571     1
  555   572     1
  555   575     1
  555   576     1
  556   560     1
  556   561     1
  556   564     1
  556   565     1
  556   573     1
  556   575     1
  556   576     1
  557   559     1
  557   563     1
  557   571     1
  557   572     1
  557   574     1
  558   562     1
  558   566     1
  558   571     1
  558   572     1
  558   574     1
  559   564     1
  559   565     1
  559   567     1
  559   570     1
  560   562     1
  560   563     1
  560   566     1
  561   563     1
  561   568     1
  561   569     1
  562   565     1
  562   567     1
  563   567     1
  563   570     1
  564   566     1
  565   568     1
  565   569     1
  570   577     1
  571   573     1
  571   575     1
  571   576     1
  572   575     1
  572   576     1
  573   574     1
  574   578     1
  574   579     1
  574   580     1
  575   577     1
  576   581     1
  577   582     1
  577   583     1
  577   584     1
  578   581     1
  579   581     1
  580   585     1
  580   586     1
  580   605     1
  581   587     1
  581   601     1
  581   606     1
  581   607     1
  582   585     1
  582   586     1
  582   605     1
  583   585     1
  583   586     1
  583   605     1
  584   588     1
  584   589     1
  584   602     1
  584   603     1
  584   608     1
  585   587     1
  585   601     1
  585   606     1
  585   607     1
  586   590     1
  586   594     1
  586   602     1
  586   603     1
  586   606     1
  586   607     1
  587   591     1
  587   592     1
  587   595     1
  587   596     1
  587   604     1
  587   606     1
  587   607     1
  588   590     1
  588   594     1
  588   602     1
  588   603     1
  588   605     1
  589   593     1
  589   597     1
  589   602     1
  589   603     1
  589   605     1
  590   595     1
  590   596     1
  590   598     1
  590   601     1
  591   593     1
  591   594     1
  591   597     1
  592   594     1
  592   599     1
  592   600     1
  593   596     1
  593   598     1
  594   598     1
  594   601     1
  595   597     1
  596   599     1
  596   600     1
  601   608     1
  602   604     1
  602   606     1
  602   607     1
  603   606     1
  603   607     1
  604   605     1
  605   609     1
  605   610     1
  605   611     1
  606   608     1
  607   612     1
  608   613     1
  608   614     1
  608   615     1
  609   612     1
  610   612     1
  611   616     1
  611   617     1
  611   638     1
  612   618     1
  612   634     1
  612   639     1
  612   640     1
  613   616     1
  613   617     1
  613   638     1
  614   616     1
  614   617     1
  614   638     1
  615   619     1
  615   620     1
  615   635     1
  615   636     1
  615   641     1
  616   618     1
  616   634     1
  616   639     1
  616   640     1
  617   623     1
  617   629     1
  617   635     1
  617   636     1
  617   639     1
  617   640     1
  618   621     1
  618   622     1
  618   624     1
  618   628     1
  618   637     1
  618   639     1
  618   640     1
  619   623     1
  619   629     1
  619   635     1
  619   636     1
  619   638     1
  620   626     1
  620   630     1
  620   635     1
  620   636     1
  620   638     1
  621   624     1
  621   626     1
  621   632     1
  621   633     1
  622   625     1
  622   628     1
  622   631     1
  623   628     1
  623   630     1
  623   634     1
  624   629     1
  625   629     1
  625   632     1
  625   633     1
  626   631     1
  627   629     1
  627   630     1
  628   630     1
  629   631     1
  629   634     1
  634   641     1
  635   637     1
  635   639     1
  635   640     1
  636   639     1
  636   640     1
  637   638     1
  638   642     1
  638   643     1
  638   644     1
  639   641     1
  640   645     1
  641   646     1
  641   647     1
  641   648     1
  642   645     1
  643   645     1
  644   649     1
  644   650     1
  644   668     1
  645   651     1
  645   664     1
  645   669     1
  645   670     1
  646   649     1
  646   650     1
  646   668     1
  647   649     1
  647   650     1
  647   668     1
  648   652     1
  648   653     1
  648   665     1
  648   666     1
  648   671     1
  649   651     1
  649   664     1
  649   669     1
  649   670     1
  650   654     1
  650   656     1
  650   665     1
  650   666     1
  650   669     1
  650   670     1
  651   655     1
  651   657     1
  651   658     1
  651   662     1
  651   667     1
  651   669     1
  651   670     1
  652   654     1
  652   656     1
  652   665     1
  652   666     1
  652   668     1
  653   659     1
  653   660     1
  653   663     1
  653   665     1
  653   666     1
  653   668     1
  654   657     1
  654   658     1
  654   661     1
  654   664     1
  655   656     1
  655   660     1
  655   663     1
  656   661     1
  656   662     1
  656   664     1
  657   659     1
  657   660     1
  658   663     1
  659   661     1
  659   662     1
  661   663     1
  664   671     1
  665   667     1
  665   669     1
  665   670     1
  666   669     1
  666   670     1
  667   668     1
  668   672     1
  668   673     1
  668   674     1
  669   671     1
  670   675     1
  671   676     1
  671   677     1
  671   678     1
  672   675     1
  673   675     1
  674   679     1
  674   680     1
  674   698     1
  675   681     1
  675   694     1
  675   699     1
  675   700     1
  676   679     1
  676   680     1
  676   698     1
  677   679     1
  677   680     1
  677   698     1
  678   682     1
  678   683     1
  678   695     1
  678   696     1
  678   701     1
  679   681     1
  679   694     1
  679   699     1
  679   700     1
  680   684     1
  680   686     1
  680   695     1
  680   696     1
  680   699     1
  680   700     1
  681   685     1
  681   687     1
  681   688     1
  681   692     1
  681   697     1
  681   699     1
  681   700     1
  682   684     1
  682   686     1
  682   695     1
  682   696     1
  682   698     1
  683   689     1
  683   690     1
  683   693     1
  683   695     1
  683   696     1
  683   698     1
  684   687     1
  684   688     1
  684   691     1
  684   694     1
  685   686     1
  685   690     1
  685   693     1
  686   691     1
  686   692     1
  686   694     1
  687   689     1
  687   690     1
  688   693     1
  689   691     1
  689   692     1
  691   693     1
  694   701     1
  695   697     1
  695   699     1
  695   700     1
  696   699     1
  696   700     1
  697   698     1
  698   702     1
  698   703     1
  698   704     1
  699   701     1
  700   705     1
  701   706     1
  701   707     1
  701   708     1
  702   705     1
  703   705     1
  704   709     1
  704   710     1
  704   732     1
  705   711     1
  705   728     1
  705   733     1
  705   734     1
  706   709     1
  706   710     1
  706   732     1
  707   709     1
  707   710     1
  707   732     1
  708   712     1
  708   713     1
  708   729     1
  708   730     1
  708   735     1
  709   711     1
  709   728     1
  709   733     1
  709   734     1
  710   714     1
  710   726     1
  710   729     1
  710   730     1
  710   733     1
  710   734     1
  711   718     1
  711   724     1
  711   725     1
  711   727     1
  711   731     1
  711   733     1
  711   734     1
  712   714     1
  712   726     1
  712   729     1
  712   730     1
  712   732     1
  713   719     1
  713   722     1
  713   729     1
  713   730     1
  713   732     1
  714   715     1
  714   720     1
  714   723     1
  714   727     1
  714   728     1
  715   721     1
  715   722     1
  716   718     1
  716   720     1
  717   718     1
  717   720     1
  718   721     1
  718   722     1
  718   725     1
  718   726     1
  719   723     1
  719   724     1
  720   725     1
  721   723     1
  721   724     1
  722   726     1
  723   725     1
  724   727     1
  726   728     1
  728   735     1
  729   731     1
  729   733     1
  729   734     1
  730   733     1
  730   734     1
  731   732     1
  732   736     1
  732   737     1
  732   738     1
  733   735     1
  734   739     1
  735   740     1
  735   741     1
  735   742     1
  736   739     1
  737   739     1
  738   743     1
  738   744     1
  738   763     1
  739   745     1
  739   759     1
  739   764     1
  739   765     1
  740   743     1
  740   744     1
  740   763     1
  741   743     1
  741   744     1
  741   763     1
  742   746     1
  742   747     1
  742   760     1
  742   761     1
  742   766     1
  743   745     1
  743   759     1
  743   764     1
  743   765     1
  744   748     1
  744   752     1
  744   760     1
  744   761     1
  744   764     1
  744   765     1
  745   749     1
  745   750     1
  745   753     1
  745   754     1
  745   762     1
  745   764     1
  745   765     1
  746   748     1
  746   752     1
  746   760     1
  746   761     1
  746   763     1
  747   751     1
  747   755     1
  747   760     1
  747   761     1
  747   763     1
  748   753     1
  748   754     1
  748   756     1
  748   759     1
  749   751     1
  749   752     1
  749   755     1
  750   752     1
  750   757     1
  750   758     1
  751   754     1
  751   756     1
  752   756     1
  752   759     1
  753   755     1
  754   757     1
  754   758     1
  759   766     1
  760   762     1
  760   764     1
  760   765     1
  761   764     1
  761   765     1
  762   763     1
  763   767     1
  763   768     1
  763   769     1
  764   766     1
  765   770     1
  766   771     1
  766   772     1
  766   773     1
  767   770     1
  768   770     1
  769   774     1
  769   775     1
  769   796     1
  770   776     1
  770   792     1
  770   797     1
  770   798     1
  771   774     1
  771   775     1
  771   796     1
  772   774     1
  772   775     1
  772   796     1
  773   777     1
  773   778     1
  773   793     1
  773   794     1
  773   799     1
  774   776     1
  774   792     1
  774   797     1
  774   798     1
  775   781     1
  775   787     1
  775   793     1
  775   794     1
  775   797     1
  775   798     1
  776   779     1
  776   780     1
  776   782     1
  776   786     1
  776   795     1
  776   797     1
  776   798     1
  777   781     1
  777   787     1
  777   793     1
  777   794     1
  777   796     1
  778   784     1
  778   788     1
  778   793     1
  778   794     1
  778   796     1
  779   782     1
  779   784     1
  779   790     1
  779   791     1
  780   783     1
  780   786     1
  780   789     1
  781   786     1
  781   788     1
  781   792     1
  782   787     1
  783   787     1
  783   790     1
  783   791     1
  784   789     1
  785   787     1
  785   788     1
  786   788     1
  787   789     1
  787   792     1
  792   799     1
  793   795     1
  793   797     1
  793   798     1
  794   797     1
  794   798     1
  795   796     1
  796   800     1
  796   801     1
  796   802     1
  797   799     1
  798   803     1
  799   804     1
  799   805     1
  799   806     1
  800   803     1
  801   803     1
  802   807     1
  802   808     1
  802   827     1
  803   809     1
  803   823     1
  803   828     1
  803   829     1
  804   807     1
  804   808     1
  804   827     1
  805   807     1
  805   808     1
  805   827     1
  806   810     1
  806   811     1
  806   824     1
  806   825     1
  806   830     1
  807   809     1
  807   823     1
  807   828     1
  807   829     1
  808   812     1
  808   816     1
  808   824     1
  808   825     1
  808   828     1
  808   829     1
  809   813     1
  809   814     1
  809   817     1
  809   818     1
  809   826     1
  809   828     1
  809   829     1
  810   812     1
  810   816     1
  810   824     1
  810   825     1
  810   827     1
  811   815     1
  811   819     1
  811   824     1
  811   825     1
  811   827     1
  812   817     1
  812   818     1
  812   820     1
  812   823     1
  813   815     1
  813   816     1
  813   819     1
  814   816     1
  814   821     1
  814   822     1
  815   818     1
  815   820     1
  816   820     1
  816   823     1
  817   819     1
  818   821     1
  818   822     1
  823   830     1
  824   826     1
  824   828     1
  824   829     1
  825   828     1
  825   829     1
  826   827     1
  827   831     1
  827   832     1
  827   833     1
  828   830     1
  829   834     1
  830   835     1
  830   836     1
  830   837     1
  831   834     1
  832   834     1
  833   838     1
  833   839     1
  833   857     1
  834   840     1
  834   853     1
  834   858     1
  834   859     1
  835   838     1
  835   839     1
  835   857     1
  836   838     1
  836   839     1
  836   857     1
  837   841     1
  837   842     1
  837   854     1
  837   855     1
  837   860     1
  838   840     1
  838   853     1
  838   858     1
  838   859     1
  839   843     1
  839   845     1
  839   854     1
  839   855     1
  839   858     1
  839   859     1
  840   844     1
  840   846     1
  840   847     1
  840   851     1
  840   856     1
  840   858     1
  840   859     1
  841   843     1
  841   845     1
  841   854     1
  841   855     1
  841   857     1
  842   848     1
  842   849     1
  842   852     1
  842   854     1
  842   855     1
  842   857     1
  843   846     1
  843   847     1
  843   850     1
  843   853     1
  844   845     1
  844   849     1
  844   852     1
  845   850     1
  845   851     1
  845   853     1
  846   848     1
  846   849     1
  847   852     1
  848   850     1
  848   851     1
  850   852     1
  853   860     1
  854   856     1
  854   858     1
  854   859     1
  855   858     1
  855   859     1
  856   857     1
  857   861     1
  857   862     1
  857   863     1
  858   860     1
  859   864     1
  860   865     1
  860   866     1
  860   867     1
  861   864     1
  862   864     1
  863   868     1
  863   869     1
  863   888     1
  864   870     1
  864   884     1
  864   889     1
  864   890     1
  865   868     1
  865   869     1
  865   888     1
  866   868     1
  866   869     1
  866   888     1
  867   871     1
  867   872     1
  867   885     1
  867   886     1
  867   891     1
  868   870     1
  868   884     1
  868   889     1
  868   890     1
  869   873     1
  869   877     1
  869   885     1
  869   886     1
  869   889     1
  869   890     1
  870   874     1
  870   875     1
  870   878     1
  870   879     1
  870   887     1
  870   889     1
  870   890     1
  871   873     1
  871   877     1
  871   885     1
  871   886     1
  871   888     1
  872   876     1
  872   880     1
  872   885     1
  872   886     1
  872   888     1
  873   878     1
  873   879     1
  873   881     1
  873   884     1
  874   876     1
  874   877     1
  874   880     1
  875   877     1
  875   882     1
  875   883     1
  876   879     1
  876   881     1
  877   881     1
  877   884     1
  878   880     1
  879   882     1
  879   883     1
  884   891     1
  885   887     1
  885   889     1
  885   890     1
  886   889     1
  886   890     1
  887   888     1
  888   892     1
  888   893     1
  888   894     1
  889   891     1
  890   895     1
  891   896     1
  891   897     1
  891   898     1
  892   895     1
  893   895     1
  894   899     1
  894   900     1
  894   919     1
  895   901     1
  895   915     1
  895   920     1
  895   921     1
  896   899     1
  896   900     1
  896   919     1
  897   899     1
  897   900     1
  897   919     1
  898   902     1
  898   903     1
  898   916     1
  898   917     1
  898   922     1
  899   901     1
  899   915     1
  899   920     1
  899   921     1
  900   904     1
  900   908     1
  900   916     1
  900   917     1
  900   920     1
  900   921     1
  901   905     1
  901   906     1
  901   909     1
  901   910     1
  901   918     1
  901   920     1
  901   921     1
  902   904     1
  902   908     1
  902   916     1
  902   917     1
  902   919     1
  903   907     1
  903   911     1
  903   916     1
  903   917     1
  903   919     1
  904   909     1
  904   910     1
  904   912     1
  904   915     1
  905   907     1
  905   908     1
  905   911     1
  906   908     1
  906   913     1
  906   914     1
  907   910     1
  907   912     1
  908   912     1
  908   915     1
  909   911     1
  910   913     1
  910   914     1
  915   922     1
  916   918     1
  916   920     1
  916   921     1
  917   920     1
  917   921     1
  918   919     1
  919   923     1
  919   924     1
  919   925     1
  920   922     1
  921   926     1
  922   927     1
  922   928     1
  922   929     1
  923   926     1
  924   926     1
  925   930     1
  925   931     1
  925   953     1
  926   932     1
  926   949     1
  926   954     1
  926   955     1
  927   930     1
  927   931     1
  927   953     1
  928   930     1
  928   931     1
  928   953     1
  929   933     1
  929   934     1
  929   950     1
  929   951     1
  929   956     1
  930   932     1
  930   949     1
  930   954     1
  930   955     1
  931   935     1
  931   947     1
  931   950     1
  931   951     1
  931   954     1
  931   955     1
  932   939     1
  932   945     1
  932   946     1
  932   948     1
  932   952     1
  932   954     1
  932   955     1
  933   935     1
  933   947     1
  933   950     1
  933   951     1
  933   953     1
  934   940     1
  934   943     1
  934   950     1
  934   951     1
  934   953     1
  935   936     1
  935   941     1
  935   944     1
  935   948     1
  935   949     1
  936   942     1
  936   943     1
  937   939     1
  937   941     1
  938   939     1
  938   941     1
  939   942     1
  939   943     1
  939   946     1
  939   947     1
  940   944     1
  940   945     1
  941   946     1
  942   944     1
  942   945     1
  943   947     1
  944   946     1
  945   948     1
  947   949     1
  949   956     1
  950   952     1
  950   954     1
  950   955     1
  951   954     1
  951   955     1
  952   953     1
  953   957     1
  953   958     1
  953   959     1
  954   956     1
  955   960     1
  956   961     1
  956   962     1
  956   963     1
  957   960     1
  958   960     1
  959   964     1
  959   965     1
  959   987     1
  960   966     1
  960   983     1
  960   988     1
  960   989     1
  961   964     1
  961   965     1
  961   987     1
  962   964     1
  962   965     1
  962   987     1
  963   967     1
  963   968     1
  963   984     1
  963   985     1
  963   990     1
  964   966     1
  964   983     1
  964   988     1
  964   989     1
  965   969     1
  965   981     1
  965   984     1
  965   985     1
  965   988     1
  965   989     1
  966   973     1
  966   979     1
  966   980     1
  966   982     1
  966   986     1
  966   988     1
  966   989     1
  967   969     1
  967   981     1
  967   984     1
  967   985     1
  967   987     1
  968   974     1
  968   977     1
  968   984     1
  968   985     1
  968   987     1
  969   970     1
  969   975     1
  969   978     1
  969   982     1
  969   983     1
  970   976     1
  970   977     1
  971   973     1
  971   975     1
  972   973     1
  972   975     1
  973   976     1
  973   977     1
  973   980     1
  973   981     1
  974   978     1
  974   979     1
  975   980     1
  976   978     1
  976   979     1
  977   981     1
  978   980     1
  979   982     1
  981   983     1
  983   990     1
  984   986     1
  984   988     1
  984   989     1
  985   988     1
  985   989     1
  986   987     1
  987   991     1
  987   992     1
  987   993     1
  988   990     1
  989   994     1
  990   995     1
  990   996     1
  990   997     1
  991   994     1
  992   994     1
  993   998     1
  993   999     1
  993  1020     1
  994  1000     1
  994  1016     1
  994  1021     1
  994  1022     1
  995   998     1
  995   999     1
  995  1020     1
  996   998     1
  996   999     1
  996  1020     1
  997  1001     1
  997  1002     1
  997  1017     1
  997  1018     1
  997  1023     1
  998  1000     1
  998  1016     1
  998  1021     1
  998  1022     1
  999  1005     1
  999  1011     1
  999  1017     1
  999  1018     1
  999  1021     1
  999  1022     1
 1000  1003     1
 1000  1004     1
 1000  1006     1
 1000  1010     1
 1000  1019     1
 1000  1021     1
 1000  1022     1
 1001  1005     1
 1001  1011     1
 1001  1017     1
 1001  1018     1
 1001  1020     1
 1002  1008     1
 1002  1012     1
 1002  1017     1
 1002  1018     1
 1002  1020     1
 1003  1006     1
 1003  1008     1
 1003  1014     1
 1003  1015     1
 1004  1007     1
 1004  1010     1
 1004  1013     1
 1005  1010     1
 1005  1012     1
 1005  1016     1
 1006  1011     1
 1007  1011     1
 1007  1014     1
 1007  1015     1
 1008  1013     1
 1009  1011     1
 1009  1012     1
 1010  1012     1
 1011  1013     1
 1011  1016     1
 1016  1023     1
 1017  1019     1
 1017  1021     1
 1017  1022     1
 1018  1021     1
 1018  1022     1
 1019  1020     1
 1020  1024     1
 1020  1025     1
 1020  1026     1
 1021  1023     1
 1022  1027     1
 1023  1028     1
 1023  1029     1
 1023  1030     1
 1024  1027     1
 1025  1027     1
 1026  1031     1
 1026  1032     1
 1026  1054     1
 1027  1033     1
 1027  1050     1
 1027  1055     1
 1027  1056     1
 1028  1031     1
 1028  1032     1
 1028  1054     1
 1029  1031     1
 1029  1032     1
 1029  1054     1
 1030  1034     1
 1030  1035     1
 1030  1051     1
 1030  1052     1
 1030  1057     1
 1031  1033     1
 1031  1050     1
 1031  1055     1
 1031  1056     1
 1032  1036     1
 1032  1048     1
 1032  1051     1
 1032  1052     1
 1032  1055     1
 1032  1056     1
 1033  1040     1
 1033  1046     1
 1033  1047     1
 1033  1049     1
 1033  1053     1
 1033  1055     1
 1033  1056     1
 1034  1036     1
 1034  1048     1
 1034  1051     1
 1034  1052     1
 1034  1054     1
 1035  1041     1
 1035  1044     1
 1035  1051     1
 1035  1052     1
 1035  1054     1
 1036  1037     1
 1036  1042     1
 1036  1045     1
 1036  1049     1
 1036  1050     1
 1037  1043     1
 1037  1044     1
 1038  1040     1
 1038  1042     1
 1039  1040     1
 1039  1042     1
 1040  1043     1
 1040  1044     1
 1040  1047     1
 1040  1048     1
 1041  1045     1
 1041  1046     1
 1042  1047     1
 1043  1045     1
 1043  1046     1
 1044  1048     1
 1045  1047     1
 1046  1049     1
 1048  1050     1
 1050  1057     1
 1051  1053     1
 1051  1055     1
 1051  1056     1
 1052  1055     1
 1052  1056     1
 1053  1054     1
 1054  1058     1
 1054  1059     1
 1054  1060     1
 1055  1057     1
 1056  1061     1
 1057  1062     1
 1057  1063     1
 1057  1064     1
 1058  1061     1
 1059  1061     1
 1060  1065     1
 1060  1066     1
 1060  1088     1
 1061  1067     1
 1061  1084     1
 1061  1089     1
 1061  1090     1
 1062  1065     1
 1062  1066     1
 1062  1088     1
 1063  1065     1
 1063  1066     1
 1063  1088     1
 1064  1068     1
 1064  1069     1
 1064  1085     1
 1064  1086     1
 1064  1091     1
 1065  1067     1
 1065  1084     1
 1065  1089     1
 1065  1090     1
 1066  1070     1
 1066  1082     1
 1066  1085     1
 1066  1086     1
 1066  1089     1
 1066  1090     1
 1067  1074     1
 1067  1080     1
 1067  1081     1
 1067  1083     1
 1067  1087     1
 1067  1089     1
 1067  1090     1
 1068  1070     1
 1068  1082     1
 1068  1085     1
 1068  1086     1
 1068  1088     1
 1069  1075     1
 1069  1078     1
 1069  1085     1
 1069  1086     1
 1069  1088     1
 1070  1071     1
 1070  1076     1
 1070  1079     1
 1070  1083     1
 1070  1084     1
 1071  1077     1
 1071  1078     1
 1072  1074     1
 1072  1076     1
 1073  1074     1
 1073  1076     1
 1074  1077     1
 1074  1078     1
 1074  1081     1
 1074  1082     1
 1075  1079     1
 1075  1080     1
 1076  1081     1
 1077  1079     1
 1077  1080     1
 1078  1082     1
 1079  1081     1
 1080  1083     1
 1082  1084     1
 1084  1091     1
 1085  1087     1
 1085  1089     1
 1085  1090     1
 1086  1089     1
 1086  1090     1
 1087  1088     1
 1088  1092     1
 1088  1093     1
 1088  1094     1
 1089  1091     1
 1090  1095     1
 1091  1096     1
 1091  1097     1
 1091  1098     1
 1092  1095     1
 1093  1095     1
 1094  1099     1
 1094  1100     1
 1094  1119     1
 1095  1101     1
 1095  1115     1
 1095  1120     1
 1095  1121     1
 1096  1099     1
 1096  1100     1
 1096  1119     1
 1097  1099     1
 1097  1100     1
 1097  1119     1
 1098  1102     1
 1098  1103     1
 1098  1116     1
 1098  1117     1
 1098  1122     1
 1099  1101     1
 1099  1115     1
 1099  1120     1
 1099  1121     1
 1100  1104     1
 1100  1108     1
 1100  1116     1
 1100  1117     1
 1100  1120     1
 1100  1121     1
 1101  1105     1
 1101  1106     1
 1101  1109     1
 1101  1110     1
 1101  1118     1
 1101  1120     1
 1101  1121     1
 1102  1104     1
 1102  1108     1
 1102  1116     1
 1102  1117     1
 1102  1119     1
 1103  1107     1
 1103  1111     1
 1103  1116     1
 1103  1117     1
 1103  1119     1
 1104  1109     1
 1104  1110     1
 1104  1112     1
 1104  1115     1
 1105  1107     1
 1105  1108     1
 1105  1111     1
 1106  1108     1
 1106  1113     1
 1106  1114     1
 1107  1110     1
 1107  1112     1
 1108  1112     1
 1108  1115     1
 1109  1111     1
 1110  1113     1
 1110  1114     1
 1115  1122     1
 1116  1118     1
 1116  1120     1
 1116  1121     1
 1117  1120     1
 1117  1121     1
 1118  1119     1
 1119  1123     1
 1119  1124     1
 1119  1125     1
 1120  1122     1
 1121  1126     1
 1122  1127     1
 1122  1128     1
 1122  1129     1
 1123  1126     1
 1124  1126     1
 1125  1130     1
 1125  1131     1
 1125  1149     1
 1126  1132     1
 1126  1145     1
 1126  1150     1
 1126  1151     1
 1127  1130     1
 1127  1131     1
 1127  1149     1
 1128  1130     1
 1128  1131     1
 1128  1149     1
 1129  1133     1
 1129  1134     1
 1129  1146     1
 1129  1147     1
 1129  1152     1
 1130  1132     1
 1130  1145     1
 1130  1150     1
 1130  1151     1
 1131  1135     1
 1131  1137     1
 1131  1146     1
 1131  1147     1
 1131  1150     1
 1131  1151     1
 1132  1136     1
 1132  1138     1
 1132  1139     1
 1132  1143     1
 1132  1148     1
 1132  1150     1
 1132  1151     1
 1133  1135     1
 1133  1137     1
 1133  1146     1
 1133  1147     1
 1133  1149     1
 1134  1140     1
 1134  1141     1
 1134  1144     1
 1134  1146     1
 1134  1147     1
 1134  1149     1
 1135  1138     1
 1135  1139     1
 1135  1142     1
 1135  1145     1
 1136  1137     1
 1136  1141     1
 1136  1144     1
 1137  1142     1
 1137  1143     1
 1137  1145     1
 1138  1140     1
 1138  1141     1
 1139  1144     1
 1140  1142     1
 1140  1143     1
 1142  1144     1
 1145  1152     1
 1146  1148     1
 1146  1150     1
 1146  1151     1
 1147  1150     1
 1147  1151     1
 1148  1149     1
 1149  1153     1
 1149  1154     1
 1149  1155     1
 1150  1152     1
 1151  1156     1
 1152  1157     1
 1152  1158     1
 1152  1159     1
 1153  1156     1
 1154  1156     1
 1155  1160     1
 1155  1161     1
 1155  1183     1
 1156  1162     1
 1156  1179     1
 1156  1184     1
 1156  1185     1
 1157  1160     1
 1157  1161     1
 1157  1183     1
 1158  1160     1
 1158  1161     1
 1158  1183     1
 1159  1163     1
 1159  1164     1
 1159  1180     1
 1159  1181     1
 1159  1186     1
 1160  1162     1
 1160  1179     1
 1160  1184     1
 1160  1185     1
 1161  1165     1
 1161  1177     1
 1161  1180     1
 1161  1181     1
 1161  1184     1
 1161  1185     1
 1162  1169     1
 1162  1175     1
 1162  1176     1
 1162  1178     1
 1162  1182     1
 1162  1184     1
 1162  1185     1
 1163  1165     1
 1163  1177     1
 1163  1180     1
 1163  1181     1
 1163  1183     1
 1164  1170     1
 1164  1173     1
 1164  1180     1
 1164  1181     1
 1164  1183     1
 1165  1166     1
 1165  1171     1
 1165  1174     1
 1165  1178     1
 1165  1179     1
 1166  1172     1
 1166  1173     1
 1167  1169     1
 1167  1171     1
 1168  1169     1
 1168  1171     1
 1169  1172     1
 1169  1173     1
 1169  1176     1
 1169  1177     1
 1170  1174     1
 1170  1175     1
 1171  1176     1
 1172  1174     1
 1172  1175     1
 1173  1177     1
 1174  1176     1
 1175  1178     1
 1177  1179     1
 1179  1186     1
 1180  1182     1
 1180  1184     1
 1180  1185     1
 1181  1184     1
 1181  1185     1
 1182  1183     1
 1183  1187     1
 1183  1188     1
 1183  1189     1
 1184  1186     1
 1185  1190     1
 1186  1191     1
 1186  1192     1
 1186  1193     1
 1187  1190     1
 1188  1190     1
 1189  1194     1
 1189  1195     1
 1189  1216     1
 1190  1196     1
 1190  1212     1
 1190  1217     1
 1190  1218     1
 1191  1194     1
 1191  1195     1
 1191  1216     1
 1192  1194     1
 1192  1195     1
 1192  1216     1
 1193  1197     1
 1193  1198     1
 1193  1213     1
 1193  1214     1
 1193  1219     1
 1194  1196     1
 1194  1212     1
 1194  1217     1
 1194  1218     1
 1195  1201     1
 1195  1207     1
 1195  1213     1
 1195  1214     1
 1195  1217     1
 1195  1218     1
 1196  1199     1
 1196  1200     1
 1196  1202     1
 1196  1206     1
 1196  1215     1
 1196  1217     1
 1196  1218     1
 1197  1201     1
 1197  1207     1
 1197  1213     1
 1197  1214     1
 1197  1216     1
 1198  1204     1
 1198  1208     1
 1198  1213     1
 1198  1214     1
 1198  1216     1
 1199  1202     1
 1199  1204     1
 1199  1210     1
 1199  1211     1
 1200  1203     1
 1200  1206     1
 1200  1209     1
 1201  1206     1
 1201  1208     1
 1201  1212     1
 1202  1207     1
 1203  1207     1
 1203  1210     1
 1203  1211     1
 1204  1209     1
 1205  1207     1
 1205  1208     1
 1206  1208     1
 1207  1209     1
 1207  1212     1
 1212  1219     1
 1213  1215     1
 1213  1217     1
 1213  1218     1
 1214  1217     1
 1214  1218     1
 1215  1216     1
 1216  1220     1
 1216  1221     1
 1216  1222     1
 1217  1219     1
 1218  1223     1
 1219  1224     1
 1219  1225     1
 1219  1226     1
 1220  1223     1
 1221  1223     1
 1222  1227     1
 1222  1228     1
 1222  1250     1
 1223  1229     1
 1223  1246     1
 1223  1251     1
 1223  1252     1
 1224  1227     1
 1224  1228     1
 1224  1250     1
 1225  1227     1
 1225  1228     1
 1225  1250     1
 1226  1230     1
 1226  1231     1
 1226  1247     1
 1226  1248     1
 1226  1253     1
 1227  1229     1
 1227  1246     1
 1227  1251     1
 1227  1252     1
 1228  1232     1
 1228  1244     1
 1228  1247     1
 1228  1248     1
 1228  1251     1
 1228  1252     1
 1229  1236     1
 1229  1242     1
 1229  1243     1
 1229  1245     1
 1229  1249     1
 1229  1251     1
 1229  1252     1
 1230  1232     1
 1230  1244     1
 1230  1247     1
 1230  1248     1
 1230  1250     1
 1231  1237     1
 1231  1240     1
 1231  1247     1
 1231  1248     1
 1231  1250     1
 1232  1233     1
 1232  1238     1
 1232  1241     1
 1232  1245     1
 1232  1246     1
 1233  1239     1
 1233  1240     1
 1234  1236     1
 1234  1238     1
 1235  1236     1
 1235  1238     1
 1236  1239     1
 1236  1240     1
 1236  1243     1
 1236  1244     1
 1237  1241     1
 1237  1242     1
 1238  1243     1
 1239  1241     1
 1239  1242     1
 1240  1244     1
 1241  1243     1
 1242  1245     1
 1244  1246     1
 1246  1253     1
 1247  1249     1
 1247  1251     1
 1247  1252     1
 1248  1251     1
 1248  1252     1
 1249  1250     1
 1250  1254     1
 1250  1255     1
 1250  1256     1
 1251  1253     1
 1252  1257     1
 1253  1258     1
 1253  1259     1
 1253  1260     1
 1254  1257     1
 1255  1257     1
 1256  1261     1
 1256  1262     1
 1256  1283     1
 1257  1263     1
 1257  1279     1
 1257  1284     1
 1257  1285     1
 1258  1261     1
 1258  1262     1
 1258  1283     1
 1259  1261     1
 1259  1262     1
 1259  1283     1
 1260  1264     1
 1260  1265     1
 1260  1280     1
 1260  1281     1
 1260  1286     1
 1261  1263     1
 1261  1279     1
 1261  1284     1
 1261  1285     1
 1262  1268     1
 1262  1274     1
 1262  1280     1
 1262  1281     1
 1262  1284     1
 1262  1285     1
 1263  1266     1
 1263  1267     1
 1263  1269     1
 1263  1273     1
 1263  1282     1
 1263  1284     1
 1263  1285     1
 1264  1268     1
 1264  1274     1
 1264  1280     1
 1264  1281     1
 1264  1283     1
 1265  1271     1
 1265  1275     1
 1265  1280     1
 1265  1281     1
 1265  1283     1
 1266  1269     1
 1266  1271     1
 1266  1277     1
 1266  1278     1
 1267  1270     1
 1267  1273     1
 1267  1276     1
 1268  1273     1
 1268  1275     1
 1268  1279     1
 1269  1274     1
 1270  1274     1
 1270  1277     1
 1270  1278     1
 1271  1276     1
 1272  1274     1
 1272  1275     1
 1273  1275     1
 1274  1276     1
 1274  1279     1
 1279  1286     1
 1280  1282     1
 1280  1284     1
 1280  1285     1
 1281  1284     1
 1281  1285     1
 1282  1283     1
 1283  1287     1
 1283  1288     1
 1283  1289     1
 1284  1286     1
 1285  1290     1
 1286  1291     1
 1286  1292     1
 1286  1293     1
 1287  1290     1
 1288  1290     1
 1289  1294     1
 1289  1295     1
 1289  1316     1
 1290  1296     1
 1290  1312     1
 1290  1317     1
 1290  1318     1
 1291  1294     1
 1291  1295     1
 1291  1316     1
 1292  1294     1
 1292  1295     1
 1292  1316     1
 1293  1297     1
 1293  1298     1
 1293  1313     1
 1293  1314     1
 1293  1319     1
 1294  1296     1
 1294  1312     1
 1294  1317     1
 1294  1318     1
 1295  1301     1
 1295  1307     1
 1295  1313     1
 1295  1314     1
 1295  1317     1
 1295  1318     1
 1296  1299     1
 1296  1300     1
 1296  1302     1
 1296  1306     1
 1296  1315     1
 1296  1317     1
 1296  1318     1
 1297  1301     1
 1297  1307     1
 1297  1313     1
 1297  1314     1
 1297  1316     1
 1298  1304     1
 1298  1308     1
 1298  1313     1
 1298  1314     1
 1298  1316     1
 1299  1302     1
 1299  1304     1
 1299  1310     1
 1299  1311     1
 1300  1303     1
 1300  1306     1
 1300  1309     1
 1301  1306     1
 1301  1308     1
 1301  1312     1
 1302  1307     1
 1303  1307     1
 1303  1310     1
 1303  1311     1
 1304  1309     1
 1305  1307     1
 1305  1308     1
 1306  1308     1
 1307  1309     1
 1307  1312     1
 1312  1319     1
 1313  1315     1
 1313  1317     1
 1313  1318     1
 1314  1317     1
 1314  1318     1
 1315  1316     1
 1316  1320     1
 1316  1321     1
 1316  1322     1
 1317  1319     1
 1318  1323     1
 1319  1324     1
 1319  1325     1
 1319  1326     1
 1320  1323     1
 1321  1323     1
 1322  1327     1
 1322  1328     1
 1322  1349     1
 1323  1329     1
 1323  1345     1
 1323  1350     1
 1323  1351     1
 1324  1327     1
 1324  1328     1
 1324  1349     1
 1325  1327     1
 1325  1328     1
 1325  1349     1
 1326  1330     1
 1326  1331     1
 1326  1346     1
 1326  1347     1
 1326  1352     1
 1327  1329     1
 1327  1345     1
 1327  1350     1
 1327  1351     1
 1328  1334     1
 1328  1340     1
 1328  1346     1
 1328  1347     1
 1328  1350     1
 1328  1351     1
 1329  1332     1
 1329  1333     1
 1329  1335     1
 1329  1339     1
 1329  1348     1
 1329  1350     1
 1329  1351     1
 1330  1334     1
 1330  1340     1
 1330  1346     1
 1330  1347     1
 1330  1349     1
 1331  1337     1
 1331  1341     1
 1331  1346     1
 1331  1347     1
 1331  1349     1
 1332  1335     1
 1332  1337     1
 1332  1343     1
 1332  1344     1
 1333  1336     1
 1333  1339     1
 1333  1342     1
 1334  1339     1
 1334  1341     1
 1334  1345     1
 1335  1340     1
 1336  1340     1
 1336  1343     1
 1336  1344     1
 1337  1342     1
 1338  1340     1
 1338  1341     1
 1339  1341     1
 1340  1342     1
 1340  1345     1
 1345  1352     1
 1346  1348     1
 1346  1350     1
 1346  1351     1
 1347  1350     1
 1347  1351     1
 1348  1349     1
 1349  1353     1
 1349  1354     1
 1349  1355     1
 1350  1352     1
 1351  1356     1
 1352  1357     1
 1352  1358     1
 1352  1359     1
 1353  1356     1
 1354  1356     1
 1355  1360     1
 1355  1361     1
 1355  1379     1
 1356  1362     1
 1356  1375     1
 1356  1380     1
 1356  1381     1
 1357  1360     1
 1357  1361     1
 1357  1379     1
 1358  1360     1
 1358  1361     1
 1358  1379     1
 1359  1363     1
 1359  1364     1
 1359  1376     1
 1359  1377     1
 1359  1382     1
 1360  1362     1
 1360  1375     1
 1360  1380     1
 1360  1381     1
 1361  1365     1
 1361  1367     1
 1361  1376     1
 1361  1377     1
 1361  1380     1
 1361  1381     1
 1362  1366     1
 1362  1368     1
 1362  1369     1
 1362  1373     1
 1362  1378     1
 1362  1380     1
 1362  1381     1
 1363  1365     1
 1363  1367     1
 1363  1376     1
 1363  1377     1
 1363  1379     1
 1364  1370     1
 1364  1371     1
 1364  1374     1
 1364  1376     1
 1364  1377     1
 1364  1379     1
 1365  1368     1
 1365  1369     1
 1365  1372     1
 1365  1375     1
 1366  1367     1
 1366  1371     1
 1366  1374     1
 1367  1372     1
 1367  1373     1
 1367  1375     1
 1368  1370     1
 1368  1371     1
 1369  1374     1
 1370  1372     1
 1370  1373     1
 1372  1374     1
 1375  1382     1
 1376  1378     1
 1376  1380     1
 1376  1381     1
 1377  1380     1
 1377  1381     1
 1378  1379     1
 1379  1383     1
 1379  1384     1
 1379  1385     1
 1380  1382     1
 1381  1386     1
 1382  1387     1
 1382  1388     1
 1382  1389     1
 1383  1386     1
 1384  1386     1
 1385  1390     1
 1385  1391     1
 1385  1412     1
 1386  1392     1
 1386  1408     1
 1386  1413     1
 1386  1414     1
 1387  1390     1
 1387  1391     1
 1387  1412     1
 1388  1390     1
 1388  1391     1
 1388  1412     1
 1389  1393     1
 1389  1394     1
 1389  1409     1
 1389  1410     1
 1389  1415     1
 1390  1392     1
 1390  1408     1
 1390  1413     1
 1390  1414     1
 1391  1397     1
 1391  1403     1
 1391  1409     1
 1391  1410     1
 1391  1413     1
 1391  1414     1
 1392  1395     1
 1392  1396     1
 1392  1398     1
 1392  1402     1
 1392  1411     1
 1392  1413     1
 1392  1414     1
 1393  1397     1
 1393  1403     1
 1393  1409     1
 1393  1410     1
 1393  1412     1
 1394  1400     1
 1394  1404     1
 1394  1409     1
 1394  1410     1
 1394  1412     1
 1395  1398     1
 1395  1400     1
 1395  1406     1
 1395  1407     1
 1396  1399     1
 1396  1402     1
 1396  1405     1
 1397  1402     1
 1397  1404     1
 1397  1408     1
 1398  1403     1
 1399  1403     1
 1399  1406     1
 1399  1407     1
 1400  1405     1
 1401  1403     1
 1401  1404     1
 1402  1404     1
 1403  1405     1
 1403  1408     1
 1408  1415     1
 1409  1411     1
 1409  1413     1
 1409  1414     1
 1410  1413     1
 1410  1414     1
 1411  1412     1
 1412  1416     1
 1412  1417     1
 1412  1418     1
 1413  1415     1
 1414  1419     1
 1415  1420     1
 1415  1421     1
 1415  1422     1
 1416  1419     1
 1417  1419     1
 1418  1423     1
 1418  1424     1
 1418  1443     1
 1419  1425     1
 1419  1439     1
 1419  1444     1
 1419  1445     1
 1420  1423     1
 1420  1424     1
 1420  1443     1
 1421  1423     1
 1421  1424     1
 1421  1443     1
 1422  1426     1
 1422  1427     1
 1422  1440     1
 1422  1441     1
 1422  1446     1
 1423  1425     1
 1423  1439     1
 1423  1444     1
 1423  1445     1
 1424  1428     1
 1424  1432     1
 1424  1440     1
 1424  1441     1
 1424  1444     1
 1424  1445     1
 1425  1429     1
 1425  1430     1
 1425  1433     1
 1425  1434     1
 1425  1442     1
 1425  1444     1
 1425  1445     1
 1426  1428     1
 1426  1432     1
 1426  1440     1
 1426  1441     1
 1426  1443     1
 1427  1431     1
 1427  1435     1
 1427  1440     1
 1427  1441     1
 1427  1443     1
 1428  1433     1
 1428  1434     1
 1428  1436     1
 1428  1439     1
 1429  1431     1
 1429  1432     1
 1429  1435     1
 1430  1432     1
 1430  1437     1
 1430  1438     1
 1431  1434     1
 1431  1436     1
 1432  1436     1
 1432  1439     1
 1433  1435     1
 1434  1437     1
 1434  1438     1
 1439  1446     1
 1440  1442     1
 1440  1444     1
 1440  1445     1
 1441  1444     1
 1441  1445     1
 1442  1443     1
 1443  1447     1
 1443  1448     1
 1443  1449     1
 1444  1446     1
 1445  1450     1
 1446  1451     1
 1446  1452     1
 1446  1453     1
 1447  1450     1
 1448  1450     1
 1449  1454     1
 1449  1455     1
 1449  1474     1
 1450  1456     1
 1450  1470     1
 1450  1475     1
 1450  1476     1
 1451  1454     1
 1451  1455     1
 1451  1474     1
 1452  1454     1
 1452  1455     1
 1452  1474     1
 1453  1457     1
 1453  1458     1
 1453  1471     1
 1453  1472     1
 1453  1477     1
 1454  1456     1
 1454  1470     1
 1454  1475     1
 1454  1476     1
 1455  1459     1
 1455  1463     1
 1455  1471     1
 1455  1472     1
 1455  1475     1
 1455  1476     1
 1456  1460     1
 1456  1461     1
 1456  1464     1
 1456  1465     1
 1456  1473     1
 1456  1475     1
 1456  1476     1
 1457  1459     1
 1457  1463     1
 1457  1471     1
 1457  1472     1
 1457  1474     1
 1458  1462     1
 1458  1466     1
 1458  1471     1
 1458  1472     1
 1458  1474     1
 1459  1464     1
 1459  1465     1
 1459  1467     1
 1459  1470     1
 1460  1462     1
 1460  1463     1
 1460  1466     1
 1461  1463     1
 1461  1468     1
 1461  1469     1
 1462  1465     1
 1462  1467     1
 1463  1467     1
 1463  1470     1
 1464  1466     1
 1465  1468     1
 1465  1469     1
 1470  1477     1
 1471  1473     1
 1471  1475     1
 1471  1476     1
 1472  1475     1
 1472  1476     1
 1473  1474     1
 1474  1478     1
 1474  1479     1
 1474  1480     1
 1475  1477     1
 1476  1481     1
 1477  1482     1
 1477  1483     1
 1477  1484     1
 1478  1481     1
 1479  1481     1
 1480  1485     1
 1480  1486     1
 1480  1505     1
 1481  1487     1
 1481  1501     1
 1481  1506     1
 1481  1507     1
 1482  1485     1
 1482  1486     1
 1482  1505     1
 1483  1485     1
 1483  1486     1
 1483  1505     1
 1484  1488     1
 1484  1489     1
 1484  1502     1
 1484  1503     1
 1484  1508     1
 1485  1487     1
 1485  1501     1
 1485  1506     1
 1485  1507     1
 1486  1490     1
 1486  1494     1
 1486  1502     1
 1486  1503     1
 1486  1506     1
 1486  1507     1
 1487  1491     1
 1487  1492     1
 1487  1495     1
 1487  1496     1
 1487  1504     1
 1487  1506     1
 1487  1507     1
 1488  1490     1
 1488  1494     1
 1488  1502     1
 1488  1503     1
 1488  1505     1
 1489  1493     1
 1489  1497     1
 1489  1502     1
 1489  1503     1
 1489  1505     1
 1490  1495     1
 1490  1496     1
 1490  1498     1
 1490  1501     1
 1491  1493     1
 1491  1494     1
 1491  1497     1
 1492  1494     1
 1492  1499     1
 1492  1500     1
 1493  1496     1
 1493  1498     1
 1494  1498     1
 1494  1501     1
 1495  1497     1
 1496  1499     1
 1496  1500     1
 1501  1508     1
 1502  1504     1
 1502  1506     1
 1502  1507     1
 1503  1506     1
 1503  1507     1
 1504  1505     1
 1505  1509     1
 1505  1510     1
 1505  1511     1
 1506  1508     1
 1507  1512     1
 1508  1513     1
 1508  1514     1
 1508  1515     1
 1509  1512     1
 1510  1512     1
 1511  1516     1
 1511  1517     1
 1511  1539     1
 1512  1518     1
 1512  1535     1
 1512  1540     1
 1512  1541     1
 1513  1516     1
 1513  1517     1
 1513  1539     1
 1514  1516     1
 1514  1517     1
 1514  1539     1
 1515  1519     1
 1515  1520     1
 1515  1536     1
 1515  1537     1
 1515  1542     1
 1516  1518     1
 1516  1535     1
 1516  1540     1
 1516  1541     1
 1517  1521     1
 1517  1533     1
 1517  1536     1
 1517  1537     1
 1517  1540     1
 1517  1541     1
 1518  1525     1
 1518  1531     1
 1518  1532     1
 1518  1534     1
 1518  1538     1
 1518  1540     1
 1518  1541     1
 1519  1521     1
 1519  1533     1
 1519  1536     1
 1519  1537     1
 1519  1539     1
 1520  1526     1
 1520  1529     1
 1520  1536     1
 1520  1537     1
 1520  1539     1
 1521  1522     1
 1521  1527     1
 1521  1530     1
 1521  1534     1
 1521  1535     1
 1522  1528     1
 1522  1529     1
 1523  1525     1
 1523  1527     1
 1524  1525     1
 1524  1527     1
 1525  1528     1
 1525  1529     1
 1525  1532     1
 1525  1533     1
 1526  1530     1
 1526  1531     1
 1527  1532     1
 1528  1530     1
 1528  1531     1
 1529  1533     1
 1530  1532     1
 1531  1534     1
 1533  1535     1
 1535  1542     1
 1536  1538     1
 1536  1540     1
 1536  1541     1
 1537  1540     1
 1537  1541     1
 1538  1539     1
 1539  1543     1
 1539  1544     1
 1539  1545     1
 1540  1542     1
 1541  1546     1
 1542  1547     1
 1542  1548     1
 1542  1549     1
 1543  1546     1
 1544  1546     1
 1545  1550     1
 1545  1551     1
 1545  1569     1
 1546  1552     1
 1546  1565     1
 1546  1570     1
 1546  1571     1
 1547  1550     1
 1547  1551     1
 1547  1569     1
 1548  1550     1
 1548  1551     1
 1548  1569     1
 1549  1553     1
 1549  1554     1
 1549  1566     1
 1549  1567     1
 1549  1572     1
 1550  1552     1
 1550  1565     1
 1550  1570     1
 1550  1571     1
 1551  1555     1
 1551  1557     1
 1551  1566     1
 1551  1567     1
 1551  1570     1
 1551  1571     1
 1552  1556     1
 1552  1558     1
 1552  1559     1
 1552  1563     1
 1552  1568     1
 1552  1570     1
 1552  1571     1
 1553  1555     1
 1553  1557     1
 1553  1566     1
 1553  1567     1
 1553  1569     1
 1554  1560     1
 1554  1561     1
 1554  1564     1
 1554  1566     1
 1554  1567     1
 1554  1569     1
 1555  1558     1
 1555  1559     1
 1555  1562     1
 1555  1565     1
 1556  1557     1
 1556  1561     1
 1556  1564     1
 1557  1562     1
 1557  1563     1
 1557  1565     1
 1558  1560     1
 1558  1561     1
 1559  1564     1
 1560  1562     1
 1560  1563     1
 1562  1564     1
 1565  1572     1
 1566  1568     1
 1566  1570     1
 1566  1571     1
 1567  1570     1
 1567  1571     1
 1568  1569     1
 1569  1573     1
 1569  1574     1
 1569  1575     1
 1570  1572     1
 1571  1576     1
 1572  1577     1
 1572  1578     1
 1572  1579     1
 1573  1576     1
 1574  1576     1
 1575  1580     1
 1575  1581     1
 1575  1602     1
 1576  1582     1
 1576  1598     1
 1576  1603     1
 1576  1604     1
 1577  1580     1
 1577  1581     1
 1577  1602     1
 1578  1580     1
 1578  1581     1
 1578  1602     1
 1579  1583     1
 1579  1584     1
 1579  1599     1
 1579  1600     1
 1579  1605     1
 1580  1582     1
 1580  1598     1
 1580  1603     1
 1580  1604     1
 1581  1587     1
 1581  1593     1
 1581  1599     1
 1581  1600     1
 1581  1603     1
 1581  1604     1
 1582  1585     1
 1582  1586     1
 1582  1588     1
 1582  1592     1
 1582  1601     1
 1582  1603     1
 1582  1604     1
 1583  1587     1
 1583  1593     1
 1583  1599     1
 1583  1600     1
 1583  1602     1
 1584  1590     1
 1584  1594     1
 1584  1599     1
 1584  1600     1
 1584  1602     1
 1585  1588     1
 1585  1590     1
 1585  1596     1
 1585  1597     1
 1586  1589     1
 1586  1592     1
 1586  1595     1
 1587  1592     1
 1587  1594     1
 1587  1598     1
 1588  1593     1
 1589  1593     1
 1589  1596     1
 1589  1597     1
 1590  1595     1
 1591  1593     1
 1591  1594     1
 1592  1594     1
 1593  1595     1
 1593  1598     1
 1598  1605     1
 1599  1601     1
 1599  1603     1
 1599  1604     1
 1600  1603     1
 1600  1604     1
 1601  1602     1
 1602  1606     1
 1602  1607     1
 1602  1608     1
 1603  1605     1
 1604  1609     1
 1605  1610     1
 1605  1611     1
 1605  1612     1
 1606  1609     1
 1607  1609     1
 1608  1613     1
 1608  1614     1
 1608  1632     1
 1609  1615     1
 1609  1628     1
 1609  1633     1
 1609  1634     1
 1610  1613     1
 1610  1614     1
 1610  1632     1
 1611  1613     1
 1611  1614     1
 1611  1632     1
 1612  1616     1
 1612  1617     1
 1612  1629     1
 1612  1630     1
 1612  1635     1
 1613  1615     1
 1613  1628     1
 1613  1633     1
 1613  1634     1
 1614  1618     1
 1614  1620     1
 1614  1629     1
 1614  1630     1
 1614  1633     1
 1614  1634     1
 1615  1619     1
 1615  1621     1
 1615  1622     1
 1615  1626     1
 1615  1631     1
 1615  1633     1
 1615  1634     1
 1616  1618     1
 1616  1620     1
 1616  1629     1
 1616  1630     1
 1616  1632     1
 1617  1623     1
 1617  1624     1
 1617  1627     1
 1617  1629     1
 1617  1630     1
 1617  1632     1
 1618  1621     1
 1618  1622     1
 1618  1625     1
 1618  1628     1
 1619  1620     1
 1619  1624     1
 1619  1627     1
 1620  1625     1
 1620  1626     1
 1620  1628     1
 1621  1623     1
 1621  1624     1
 1622  1627     1
 1623  1625     1
 1623  1626     1
 1625  1627     1
 1628  1635     1
 1629  1631     1
 1629  1633     1
 1629  1634     1
 1630  1633     1
 1630  1634     1
 1631  1632     1
 1632  1636     1
 1632  1637     1
 1632  1638     1
 1633  1635     1
 1634  1639     1
 1635  1640     1
 1635  1641     1
 1635  1642     1
 1636  1639     1
 1637  1639     1
 1638  1643     1
 1638  1644     1
 1638  1663     1
 1639  1645     1
 1639  1659     1
 1639  1664     1
 1639  1665     1
 1640  1643     1
 1640  1644     1
 1640  1663     1
 1641  1643     1
 1641  1644     1
 1641  1663     1
 1642  1646     1
 1642  1647     1
 1642  1660     1
 1642  1661     1
 1642  1666     1
 1643  1645     1
 1643  1659     1
 1643  1664     1
 1643  1665     1
 1644  1648     1
 1644  1652     1
 1644  1660     1
 1644  1661     1
 1644  1664     1
 1644  1665     1
 1645  1649     1
 1645  1650     1
 1645  1653     1
 1645  1654     1
 1645  1662     1
 1645  1664     1
 1645  1665     1
 1646  1648     1
 1646  1652     1
 1646  1660     1
 1646  1661     1
 1646  1663     1
 1647  1651     1
 1647  1655     1
 1647  1660     1
 1647  1661     1
 1647  1663     1
 1648  1653     1
 1648  1654     1
 1648  1656     1
 1648  1659     1
 1649  1651     1
 1649  1652     1
 1649  1655     1
 1650  1652     1
 1650  1657     1
 1650  1658     1
 1651  1654     1
 1651  1656     1
 1652  1656     1
 1652  1659     1
 1653  1655     1
 1654  1657     1
 1654  1658     1
 1659  1666     1
 1660  1662     1
 1660  1664     1
 1660  1665     1
 1661  1664     1
 1661  1665     1
 1662  1663     1
 1663  1667     1
 1663  1668     1
 1663  1669     1
 1664  1666     1
 1665  1670     1
 1666  1671     1
 1666  1672     1
 1666  1673     1
 1667  1670     1
 1668  1670     1
 1669  1674     1
 1669  1675     1
 1669  1696     1
 1670  1676     1
 1670  1692     1
 1670  1697     1
 1670  1698     1
 1671  1674     1
 1671  1675     1
 1671  1696     1
 1672  1674     1
 1672  1675     1
 1672  1696     1
 1673  1677     1
 1673  1678     1
 1673  1693     1
 1673  1694     1
 1673  1699     1
 1674  1676     1
 1674  1692     1
 1674  1697     1
 1674  1698     1
 1675  1681     1
 1675  1687     1
 1675  1693     1
 1675  1694     1
 1675  1697     1
 1675  1698     1
 1676  1679     1
 1676  1680     1
 1676  1682     1
 1676  1686     1
 1676  1695     1
 1676  1697     1
 1676  1698     1
 1677  1681     1
 1677  1687     1
 1677  1693     1
 1677  1694     1
 1677  1696     1
 1678  1684     1
 1678  1688     1
 1678  1693     1
 1678  1694     1
 1678  1696     1
 1679  1682     1
 1679  1684     1
 1679  1690     1
 1679  1691     1
 1680  1683     1
 1680  1686     1
 1680  1689     1
 1681  1686     1
 1681  1688     1
 1681  1692     1
 1682  1687     1
 1683  1687     1
 1683  1690     1
 1683  1691     1
 1684  1689     1
 1685  1687     1
 1685  1688     1
 1686  1688     1
 1687  1689     1
 1687  1692     1
 1692  1699     1
 1693  1695     1
 1693  1697     1
 1693  1698     1
 1694  1697     1
 1694  1698     1
 1695  1696     1
 1696  1700     1
 1696  1701     1
 1696  1702     1
 1697  1699     1
 1698  1703     1
 1699  1704     1
 1699  1705     1
 1699  1706     1
 1700  1703     1
 1701  1703     1
 1702  1707     1
 1702  1708     1
 1702  1727     1
 1703  1709     1
 1703  1723     1
 1703  1728     1
 1703  1729     1
 1704  1707     1
 1704  1708     1
 1704  1727     1
 1705  1707     1
 1705  1708     1
 1705  1727     1
 1706  1710     1
 1706  1711     1
 1706  1724     1
 1706  1725     1
 1706  1730     1
 1707  1709     1
 1707  1723     1
 1707  1728     1
 1707  1729     1
 1708  1712     1
 1708  1716     1
 1708  1724     1
 1708  1725     1
 1708  1728     1
 1708  1729     1
 1709  1713     1
 1709  1714     1
 1709  1717     1
 1709  1718     1
 1709  1726     1
 1709  1728     1
 1709  1729     1
 1710  1712     1
 1710  1716     1
 1710  1724     1
 1710  1725     1
 1710  1727     1
 1711  1715     1
 1711  1719     1
 1711  1724     1
 1711  1725     1
 1711  1727     1
 1712  1717     1
 1712  1718     1
 1712  1720     1
 1712  1723     1
 1713  1715     1
 1713  1716     1
 1713  1719     1
 1714  1716     1
 1714  1721     1
 1714  1722     1
 1715  1718     1
 1715  1720     1
 1716  1720     1
 1716  1723     1
 1717  1719     1
 1718  1721     1
 1718  1722     1
 1723  1730     1
 1724  1726     1
 1724  1728     1
 1724  1729     1
 1725  1728     1
 1725  1729     1
 1726  1727     1
 1727  1731     1
 1727  1732     1
 1727  1733     1
 1728  1730     1
 1729  1734     1
 1730  1735     1
 1730  1736     1
 1730  1737     1
 1731  1734     1
 1732  1734     1
 1733  1738     1
 1733  1739     1
 1733  1758     1
 1734  1740     1
 1734  1754     1
 1734  1759     1
 1734  1760     1
 1735  1738     1
 1735  1739     1
 1735  1758     1
 1736  1738     1
 1736  1739     1
 1736  1758     1
 1737  1741     1
 1737  1742     1
 1737  1755     1
 1737  1756     1
 1737  1761     1
 1738  1740     1
 1738  1754     1
 1738  1759     1
 1738  1760     1
 1739  1743     1
 1739  1747     1
 1739  1755     1
 1739  1756     1
 1739  1759     1
 1739  1760     1
 1740  1744     1
 1740  1745     1
 1740  1748     1
 1740  1749     1
 1740  1757     1
 1740  1759     1
 1740  1760     1
 1741  1743     1
 1741  1747     1
 1741  1755     1
 1741  1756     1
 1741  1758     1
 1742  1746     1
 1742  1750     1
 1742  1755     1
 1742  1756     1
 1742  1758     1
 1743  1748     1
 1743  1749     1
 1743  1751     1
 1743  1754     1
 1744  1746     1
 1744  1747     1
 1744  1750     1
 1745  1747     1
 1745  1752     1
 1745  1753     1
 1746  1749     1
 1746  1751     1
 1747  1751     1
 1747  1754     1
 1748  1750     1
 1749  1752     1
 1749  1753     1
 1754  1761     1
 1755  1757     1
 1755  1759     1
 1755  1760     1
 1756  1759     1
 1756  1760     1
 1757  1758     1
 1758  1762     1
 1758  1763     1
 1758  1764     1
 1759  1761     1
 1760  1765     1
 1761  1766     1
 1761  1767     1
 1761  1768     1
 1762  1765     1
 1763  1765     1
 1764  1769     1
 1764  1770     1
 1764  1788     1
 1765  1771     1
 1765  1784     1
 1765  1789     1
 1765  1790     1
 1766  1769     1
 1766  1770     1
 1766  1788     1
 1767  1769     1
 1767  1770     1
 1767  1788     1
 1768  1772     1
 1768  1773     1
 1768  1785     1
 1768  1786     1
 1768  1791     1
 1769  1771     1
 1769  1784     1
 1769  1789     1
 1769  1790     1
 1770  1774     1
 1770  1776     1
 1770  1785     1
 1770  1786     1
 1770  1789     1
 1770  1790     1
 1771  1775     1
 1771  1777     1
 1771  1778     1
 1771  1782     1
 1771  1787     1
 1771  1789     1
 1771  1790     1
 1772  1774     1
 1772  1776     1
 1772  1785     1
 1772  1786     1
 1772  1788     1
 1773  1779     1
 1773  1780     1
 1773  1783     1
 1773  1785     1
 1773  1786     1
 1773  1788     1
 1774  1777     1
 1774  1778     1
 1774  1781     1
 1774  1784     1
 1775  1776     1
 1775  1780     1
 1775  1783     1
 1776  1781     1
 1776  1782     1
 1776  1784     1
 1777  1779     1
 1777  1780     1
 1778  1783     1
 1779  1781     1
 1779  1782     1
 1781  1783     1
 1784  1791     1
 1785  1787     1
 1785  1789     1
 1785  1790     1
 1786  1789     1
 1786  1790     1
 1787  1788     1
 1788  1792     1
 1788  1793     1
 1788  1794     1
 1789  1791     1
 1790  1795     1
 1791  1796     1
 1791  1797     1
 1791  1798     1
 1792  1795     1
 1793  1795     1
 1794  1799     1
 1794  1800     1
 1794  1822     1
 1795  1801     1
 1795  1818     1
 1795  1823     1
 1795  1824     1
 1796  1799     1
 1796  1800     1
 1796  1822     1
 1797  1799     1
 1797  1800     1
 1797  1822     1
 1798  1802     1
 1798  1803     1
 1798  1819     1
 1798  1820     1
 1798  1825     1
 1799  1801     1
 1799  1818     1
 1799  1823     1
 1799  1824     1
 1800  1804     1
 1800  1816     1
 1800  1819     1
 1800  1820     1
 1800  1823     1
 1800  1824     1
 1801  1808     1
 1801  1814     1
 1801  1815     1
 1801  1817     1
 1801  1821     1
 1801  1823     1
 1801  1824     1
 1802  1804     1
 1802  1816     1
 1802  1819     1
 1802  1820     1
 1802  1822     1
 1803  1809     1
 1803  1812     1
 1803  1819     1
 1803  1820     1
 1803  1822     1
 1804  1805     1
 1804  1810     1
 1804  1813     1
 1804  1817     1
 1804  1818     1
 1805  1811     1
 1805  1812     1
 1806  1808     1
 1806  1810     1
 1807  1808     1
 1807  1810     1
 1808  1811     1
 1808  1812     1
 1808  1815     1
 1808  1816     1
 1809  1813     1
 1809  1814     1
 1810  1815     1
 1811  1813     1
 1811  1814     1
 1812  1816     1
 1813  1815     1
 1814  1817     1
 1816  1818     1
 1818  1825     1
 1819  1821     1
 1819  1823     1
 1819  1824     1
 1820  1823     1
 1820  1824     1
 1821  1822     1
 1822  1826     1
 1822  1827     1
 1822  1828     1
 1823  1825     1
 1824  1829     1
 1825  1830     1
 1825  1831     1
 1825  1832     1
 1826  1829     1
 1827  1829     1
 1828  1833     1
 1828  1834     1
 1828  1855     1
 1829  1835     1
 1829  1851     1
 1829  1856     1
 1829  1857     1
 1830  1833     1
 1830  1834     1
 1830  1855     1
 1831  1833     1
 1831  1834     1
 1831  1855     1
 1832  1836     1
 1832  1837     1
 1832  1852     1
 1832  1853     1
 1832  1858     1
 1833  1835     1
 1833  1851     1
 1833  1856     1
 1833  1857     1
 1834  1840     1
 1834  1846     1
 1834  1852     1
 1834  1853     1
 1834  1856     1
 1834  1857     1
 1835  1838     1
 1835  1839     1
 1835  1841     1
 1835  1845     1
 1835  1854     1
 1835  1856     1
 1835  1857     1
 1836  1840     1
 1836  1846     1
 1836  1852     1
 1836  1853     1
 1836  1855     1
 1837  1843     1
 1837  1847     1
 1837  1852     1
 1837  1853     1
 1837  1855     1
 1838  1841     1
 1838  1843     1
 1838  1849     1
 1838  1850     1
 1839  1842     1
 1839  1845     1
 1839  1848     1
 1840  1845     1
 1840  1847     1
 1840  1851     1
 1841  1846     1
 1842  1846     1
 1842  1849     1
 1842  1850     1
 1843  1848     1
 1844  1846     1
 1844  1847     1
 1845  1847     1
 1846  1848     1
 1846  1851     1
 1851  1858     1
 1852  1854     1
 1852  1856     1
 1852  1857     1
 1853  1856     1
 1853  1857     1
 1854  1855     1
 1855  1859     1
 1855  1860     1
 1855  1861     1
 1856  1858     1
 1857  1862     1
 1858  1863     1
 1858  1864     1
 1858  1865     1
 1859  1862     1
 1860  1862     1
 1861  1866     1
 1861  1867     1
 1861  1885     1
 1862  1868     1
 1862  1881     1
 1862  1886     1
 1862  1887     1
 1863  1866     1
 1863  1867     1
 1863  1885     1
 1864  1866     1
 1864  1867     1
 1864  1885     1
 1865  1869     1
 1865  1870     1
 1865  1882     1
 1865  1883     1
 1865  1888     1
 1866  1868     1
 1866  1881     1
 1866  1886     1
 1866  1887     1
 1867  1871     1
 1867  1873     1
 1867  1882     1
 1867  1883     1
 1867  1886     1
 1867  1887     1
 1868  1872     1
 1868  1874     1
 1868  1875     1
 1868  1879     1
 1868  1884     1
 1868  1886     1
 1868  1887     1
 1869  1871     1
 1869  1873     1
 1869  1882     1
 1869  1883     1
 1869  1885     1
 1870  1876     1
 1870  1877     1
 1870  1880     1
 1870  1882     1
 1870  1883     1
 1870  1885     1
 1871  1874     1
 1871  1875     1
 1871  1878     1
 1871  1881     1
 1872  1873     1
 1872  1877     1
 1872  1880     1
 1873  1878     1
 1873  1879     1
 1873  1881     1
 1874  1876     1
 1874  1877     1
 1875  1880     1
 1876  1878     1
 1876  1879     1
 1878  1880     1
 1881  1888     1
 1882  1884     1
 1882  1886     1
 1882  1887     1
 1883  1886     1
 1883  1887     1
 1884  1885     1
 1885  1889     1
 1885  1890     1
 1885  1891     1
 1886  1888     1
 1887  1892     1
 1888  1893     1
 1888  1894     1
 1888  1895     1
 1889  1892     1
 1890  1892     1
 1891  1896     1
 1891  1897     1
 1891  1916     1
 1892  1898     1
 1892  1912     1
 1892  1917     1
 1892  1918     1
 1893  1896     1
 1893  1897     1
 1893  1916     1
 1894  1896     1
 1894  1897     1
 1894  1916     1
 1895  1899     1
 1895  1900     1
 1895  1913     1
 1895  1914     1
 1895  1919     1
 1896  1898     1
 1896  1912     1
 1896  1917     1
 1896  1918     1
 1897  1901     1
 1897  1905     1
 1897  1913     1
 1897  1914     1
 1897  1917     1
 1897  1918     1
 1898  1902     1
 1898  1903     1
 1898  1906     1
 1898  1907     1
 1898  1915     1
 1898  1917     1
 1898  1918     1
 1899  1901     1
 1899  1905     1
 1899  1913     1
 1899  1914     1
 1899  1916     1
 1900  1904     1
 1900  1908     1
 1900  1913     1
 1900  1914     1
 1900  1916     1
 1901  1906     1
 1901  1907     1
 1901  1909     1
 1901  1912     1
 1902  1904     1
 1902  1905     1
 1902  1908     1
 1903  1905     1
 1903  1910     1
 1903  1911     1
 1904  1907     1
 1904  1909     1
 1905  1909     1
 1905  1912     1
 1906  1908     1
 1907  1910     1
 1907  1911     1
 1912  1919     1
 1913  1915     1
 1913  1917     1
 1913  1918     1
 1914  1917     1
 1914  1918     1
 1915  1916     1
 1916  1920     1
 1916  1921     1
 1916  1922     1
 1917  1919     1
 1918  1923     1
 1919  1924     1
 1919  1925     1
 1919  1926     1
 1920  1923     1
 1921  1923     1
 1922  1927     1
 1922  1928     1
 1922  1946     1
 1923  1929     1
 1923  1942     1
 1923  1947     1
 1923  1948     1
 1924  1927     1
 1924  1928     1
 1924  1946     1
 1925  1927     1
 1925  1928     1
 1925  1946     1
 1926  1930     1
 1926  1931     1
 1926  1943     1
 1926  1944     1
 1926  1949     1
 1927  1929     1
 1927  1942     1
 1927  1947     1
 1927  1948     1
 1928  1932     1
 1928  1934     1
 1928  1943     1
 1928  1944     1
 1928  1947     1
 1928  1948     1
 1929  1933     1
 1929  1935     1
 1929  1936     1
 1929  1940     1
 1929  1945     1
 1929  1947     1
 1929  1948     1
 1930  1932     1
 1930  1934     1
 1930  1943     1
 1930  1944     1
 1930  1946     1
 1931  1937     1
 1931  1938     1
 1931  1941     1
 1931  1943     1
 1931  1944     1
 1931  1946     1
 1932  1935     1
 1932  1936     1
 1932  1939     1
 1932  1942     1
 1933  1934     1
 1933  1938     1
 1933  1941     1
 1934  1939     1
 1934  1940     1
 1934  1942     1
 1935  1937     1
 1935  1938     1
 1936  1941     1
 1937  1939     1
 1937  1940     1
 1939  1941     1
 1942  1949     1
 1943  1945     1
 1943  1947     1
 1943  1948     1
 1944  1947     1
 1944  1948     1
 1945  1946     1
 1946  1950     1
 1946  1951     1
 1946  1952     1
 1947  1949     1
 1948  1953     1
 1949  1954     1
 1949  1955     1
 1949  1956     1
 1950  1953     1
 1951  1953     1
 1952  1957     1
 1952  1958     1
 1952  1980     1
 1953  1959     1
 1953  1976     1
 1953  1981     1
 1953  1982     1
 1954  1957     1
 1954  1958     1
 1954  1980     1
 1955  1957     1
 1955  1958     1
 1955  1980     1
 1956  1960     1
 1956  1961     1
 1956  1977     1
 1956  1978     1
 1956  1983     1
 1957  1959     1
 1957  1976     1
 1957  1981     1
 1957  1982     1
 1958  1962     1
 1958  1974     1
 1958  1977     1
 1958  1978     1
 1958  1981     1
 1958  1982     1
 1959  1966     1
 1959  1972     1
 1959  1973     1
 1959  1975     1
 1959  1979     1
 1959  1981     1
 1959  1982     1
 1960  1962     1
 1960  1974     1
 1960  1977     1
 1960  1978     1
 1960  1980     1
 1961  1967     1
 1961  1970     1
 1961  1977     1
 1961  1978     1
 1961  1980     1
 1962  1963     1
 1962  1968     1
 1962  1971     1
 1962  1975     1
 1962  1976     1
 1963  1969     1
 1963  1970     1
 1964  1966     1
 1964  1968     1
 1965  1966     1
 1965  1968     1
 1966  1969     1
 1966  1970     1
 1966  1973     1
 1966  1974     1
 1967  1971     1
 1967  1972     1
 1968  1973     1
 1969  1971     1
 1969  1972     1
 1970  1974     1
 1971  1973     1
 1972  1975     1
 1974  1976     1
 1976  1983     1
 1977  1979     1
 1977  1981     1
 1977  1982     1
 1978  1981     1
 1978  1982     1
 1979  1980     1
 1980  1984     1
 1980  1985     1
 1980  1986     1
 1981  1983     1
 1982  1987     1
 1983  1988     1
 1983  1989     1
 1983  1990     1
 1984  1987     1
 1985  1987     1
 1986  1991     1
 1986  1992     1
 1986  2014     1
 1987  1993     1
 1987  2010     1
 1987  2015     1
 1987  2016     1
 1988  1991     1
 1988  1992     1
 1988  2014     1
 1989  1991     1
 1989  1992     1
 1989  2014     1
 1990  1994     1
 1990  1995     1
 1990  2011     1
 1990  2012     1
 1990  2017     1
 1991  1993     1
 1991  2010     1
 1991  2015     1
 1991  2016     1
 1992  1996     1
 1992  2008     1
 1992  2011     1
 1992  2012     1
 1992  2015     1
 1992  2016     1
 1993  2000     1
 1993  2006     1
 1993  2007     1
 1993  2009     1
 1993  2013     1
 1993  2015     1
 1993  2016     1
 1994  1996     1
 1994  2008     1
 1994  2011     1
 1994  2012     1
 1994  2014     1
 1995  2001     1
 1995  2004     1
 1995  2011     1
 1995  2012     1
 1995  2014     1
 1996  1997     1
 1996  2002     1
 1996  2005     1
 1996  2009     1
 1996  2010     1
 1997  2003     1
 1997  2004     1
 1998  2000     1
 1998  2002     1
 1999  2000     1
 1999  2002     1
 2000  2003     1
 2000  2004     1
 2000  2007     1
 2000  2008     1
 2001  2005     1
 2001  2006     1
 2002  2007     1
 2003  2005     1
 2003  2006     1
 2004  2008     1
 2005  2007     1
 2006  2009     1
 2008  2010     1
 2010  2017     1
 2011  2013     1
 2011  2015     1
 2011  2016     1
 2012  2015     1
 2012  2016     1
 2013  2014     1
 2014  2018     1
 2014  2019     1
 2014  2020     1
 2015  2017     1
 2016  2021     1
 2017  2022     1
 2017  2023     1
 2017  2024     1
 2018  2021     1
 2019  2021     1
 2020  2025     1
 2020  2026     1
 2020  2047     1
 2021  2027     1
 2021  2043     1
 2021  2048     1
 2021  2049     1
 2022  2025     1
 2022  2026     1
 2022  2047     1
 2023  2025     1
 2023  2026     1
 2023  2047     1
 2024  2028     1
 2024  2029     1
 2024  2044     1
 2024  2045     1
 2024  2050     1
 2025  2027     1
 2025  2043     1
 2025  2048     1
 2025  2049     1
 2026  2032     1
 2026  2038     1
 2026  2044     1
 2026  2045     1
 2026  2048     1
 2026  2049     1
 2027  2030     1
 2027  2031     1
 2027  2033     1
 2027  2037     1
 2027  2046     1
 2027  2048     1
 2027  2049     1
 2028  2032     1
 2028  2038     1
 2028  2044     1
 2028  2045     1
 2028  2047     1
 2029  2035     1
 2029  2039     1
 2029  2044     1
 2029  2045     1
 2029  2047     1
 2030  2033     1
 2030  2035     1
 2030  2041     1
 2030  2042     1
 2031  2034     1
 2031  2037     1
 2031  2040     1
 2032  2037     1
 2032  2039     1
 2032  2043     1
 2033  2038     1
 2034  2038     1
 2034  2041     1
 2034  2042     1
 2035  2040     1
 2036  2038     1
 2036  2039     1
 2037  2039     1
 2038  2040     1
 2038  2043     1
 2043  2050     1
 2044  2046     1
 2044  2048     1
 2044  2049     1
 2045  2048     1
 2045  2049     1
 2046  2047     1
 2047  2051     1
 2047  2052     1
 2047  2053     1
 2048  2050     1
 2049  2054     1
 2050  2055     1
 2050  2056     1
 2050  2057     1
 2051  2054     1
 2052  2054     1
 2053  2058     1
 2053  2059     1
 2053  2077     1
 2054  2060     1
 2054  2073     1
 2054  2078     1
 2054  2079     1
 2055  2058     1
 2055  2059     1
 2055  2077     1
 2056  2058     1
 2056  2059     1
 2056  2077     1
 2057  2061     1
 2057  2062     1
 2057  2074     1
 2057  2075     1
 2057  2080     1
 2058  2060     1
 2058  2073     1
 2058  2078     1
 2058  2079     1
 2059  2063     1
 2059  2065     1
 2059  2074     1
 2059  2075     1
 2059  2078     1
 2059  2079     1
 2060  2064     1
 2060  2066     1
 2060  2067     1
 2060  2071     1
 2060  2076     1
 2060  2078     1
 2060  2079     1
 2061  2063     1
 2061  2065     1
 2061  2074     1
 2061  2075     1
 2061  2077     1
 2062  2068     1
 2062  2069     1
 2062  2072     1
 2062  2074     1
 2062  2075     1
 2062  2077     1
 2063  2066     1
 2063  2067     1
 2063  2070     1
 2063  2073     1
 2064  2065     1
 2064  2069     1
 2064  2072     1
 2065  2070     1
 2065  2071     1
 2065  2073     1
 2066  2068     1
 2066  2069     1
 2067  2072     1
 2068  2070     1
 2068  2071     1
 2070  2072     1
 2073  2080     1
 2074  2076     1
 2074  2078     1
 2074  2079     1
 2075  2078     1
 2075  2079     1
 2076  2077     1
 2077  2081     1
 2077  2082     1
 2077  2083     1
 2078  2080     1
 2079  2084     1
 2080  2085     1
 2080  2086     1
 2080  2087     1
 2081  2084     1
 2082  2084     1
 2083  2088     1
 2083  2089     1
 2083  2110     1
 2084  2090     1
 2084  2106     1
 2084  2111     1
 2084  2112     1
 2085  2088     1
 2085  2089     1
 2085  2110     1
 2086  2088     1
 2086  2089     1
 2086  2110     1
 2087  2091     1
 2087  2092     1
 2087  2107     1
 2087  2108     1
 2087  2113     1
 2088  2090     1
 2088  2106     1
 2088  2111     1
 2088  2112     1
 2089  2095     1
 2089  2101     1
 2089  2107     1
 2089  2108     1
 2089  2111     1
 2089  2112     1
 2090  2093     1
 2090  2094     1
 2090  2096     1
 2090  2100     1
 2090  2109     1
 2090  2111     1
 2090  2112     1
 2091  2095     1
 2091  2101     1
 2091  2107     1
 2091  2108     1
 2091  2110     1
 2092  2098     1
 2092  2102     1
 2092  2107     1
 2092  2108     1
 2092  2110     1
 2093  2096     1
 2093  2098     1
 2093  2104     1
 2093  2105     1
 2094  2097     1
 2094  2100     1
 2094  2103     1
 2095  2100     1
 2095  2102     1
 2095  2106     1
 2096  2101     1
 2097  2101     1
 2097  2104     1
 2097  2105     1
 2098  2103     1
 2099  2101     1
 2099  2102     1
 2100  2102     1
 2101  2103     1
 2101  2106     1
 2106  2113     1
 2107  2109     1
 2107  2111     1
 2107  2112     1
 2108  2111     1
 2108  2112     1
 2109  2110     1
 2110  2114     1
 2110  2115     1
 2110  2116     1
 2111  2113     1
 2112  2117     1
 2113  2118     1
 2113  2119     1
 2113  2120     1
 2114  2117     1
 2115  2117     1
 2116  2121     1
 2116  2122     1
 2116  2143     1
 2117  2123     1
 2117  2139     1
 2117  2144     1
 2117  2145     1
 2118  2121     1
 2118  2122     1
 2118  2143     1
 2119  2121     1
 2119  2122     1
 2119  2143     1
 2120  2124     1
 2120  2125     1
 2120  2140     1
 2120  2141     1
 2120  2146     1
 2121  2123     1
 2121  2139     1
 2121  2144     1
 2121  2145     1
 2122  2128     1
 2122  2134     1
 2122  2140     1
 2122  2141     1
 2122  2144     1
 2122  2145     1
 2123  2126     1
 2123  2127     1
 2123  2129     1
 2123  2133     1
 2123  2142     1
 2123  2144     1
 2123  2145     1
 2124  2128     1
 2124  2134     1
 2124  2140     1
 2124  2141     1
 2124  2143     1
 2125  2131     1
 2125  2135     1
 2125  2140     1
 2125  2141     1
 2125  2143     1
 2126  2129     1
 2126  2131     1
 2126  2137     1
 2126  2138     1
 2127  2130     1
 2127  2133     1
 2127  2136     1
 2128  2133     1
 2128  2135     1
 2128  2139     1
 2129  2134     1
 2130  2134     1
 2130  2137     1
 2130  2138     1
 2131  2136     1
 2132  2134     1
 2132  2135     1
 2133  2135     1
 2134  2136     1
 2134  2139     1
 2139  2146     1
 2140  2142     1
 2140  2144     1
 2140  2145     1
 2141  2144     1
 2141  2145     1
 2142  2143     1
 2143  2147     1
 2143  2148     1
 2143  2149     1
 2144  2146     1
 2145  2150     1
 2146  2151     1
 2146  2152     1
 2146  2153     1
 2147  2150     1
 2148  2150     1
 2149  2154     1
 2149  2155     1
 2149  2173     1
 2150  2156     1
 2150  2169     1
 2150  2174     1
 2150  2175     1
 2151  2154     1
 2151  2155     1
 2151  2173     1
 2152  2154     1
 2152  2155     1
 2152  2173     1
 2153  2157     1
 2153  2158     1
 2153  2170     1
 2153  2171     1
 2153  2176     1
 2154  2156     1
 2154  2169     1
 2154  2174     1
 2154  2175     1
 2155  2159     1
 2155  2161     1
 2155  2170     1
 2155  2171     1
 2155  2174     1
 2155  2175     1
 2156  2160     1
 2156  2162     1
 2156  2163     1
 2156  2167     1
 2156  2172     1
 2156  2174     1
 2156  2175     1
 2157  2159     1
 2157  2161     1
 2157  2170     1
 2157  2171     1
 2157  2173     1
 2158  2164     1
 2158  2165     1
 2158  2168     1
 2158  2170     1
 2158  2171     1
 2158  2173     1
 2159  2162     1
 2159  2163     1
 2159  2166     1
 2159  2169     1
 2160  2161     1
 2160  2165     1
 2160  2168     1
 2161  2166     1
 2161  2167     1
 2161  2169     1
 2162  2164     1
 2162  2165     1
 2163  2168     1
 2164  2166     1
 2164  2167     1
 2166  2168     1
 2169  2176     1
 2170  2172     1
 2170  2174     1
 2170  2175     1
 2171  2174     1
 2171  2175     1
 2172  2173     1
 2173  2177     1
 2173  2178     1
 2173  2179     1
 2174  2176     1
 2175  2180     1
 2176  2181     1
 2176  2182     1
 2176  2183     1
 2177  2180     1
 2178  2180     1
 2179  2184     1
 2179  2185     1
 2179  2207     1
 2180  2186     1
 2180  2203     1
 2180  2208     1
 2180  2209     1
 2181  2184     1
 2181  2185     1
 2181  2207     1
 2182  2184     1
 2182  2185     1
 2182  2207     1
 2183  2187     1
 2183  2188     1
 2183  2204     1
 2183  2205     1
 2183  2210     1
 2184  2186     1
 2184  2203     1
 2184  2208     1
 2184  2209     1
 2185  2189     1
 2185  2201     1
 2185  2204     1
 2185  2205     1
 2185  2208     1
 2185  2209     1
 2186  2193     1
 2186  2199     1
 2186  2200     1
 2186  2202     1
 2186  2206     1
 2186  2208     1
 2186  2209     1
 2187  2189     1
 2187  2201     1
 2187  2204     1
 2187  2205     1
 2187  2207     1
 2188  2194     1
 2188  2197     1
 2188  2204     1
 2188  2205     1
 2188  2207     1
 2189  2190     1
 2189  2195     1
 2189  2198     1
 2189  2202     1
 2189  2203     1
 2190  2196     1
 2190  2197     1
 2191  2193     1
 2191  2195     1
 2192  2193     1
 2192  2195     1
 2193  2196     1
 2193  2197     1
 2193  2200     1
 2193  2201     1
 2194  2198     1
 2194  2199     1
 2195  2200     1
 2196  2198     1
 2196  2199     1
 2197  2201     1
 2198  2200     1
 2199  2202     1
 2201  2203     1
 2203  2210     1
 2204  2206     1
 2204  2208     1
 2204  2209     1
 2205  2208     1
 2205  2209     1
 2206  2207     1
 2207  2211     1
 2207  2212     1
 2207  2213     1
 2208  2210     1
 2209  2214     1
 2210  2215     1
 2210  2216     1
 2210  2217     1
 2211  2214     1
 2212  2214     1
 2213  2218     1
 2213  2219     1
 2213  2238     1
 2214  2220     1
 2214  2234     1
 2214  2239     1
 2214  2240     1
 2215  2218     1
 2215  2219     1
 2215  2238     1
 2216  2218     1
 2216  2219     1
 2216  2238     1
 2217  2221     1
 2217  2222     1
 2217  2235     1
 2217  2236     1
 2217  2241     1
 2218  2220     1
 2218  2234     1
 2218  2239     1
 2218  2240     1
 2219  2223     1
 2219  2227     1
 2219  2235     1
 2219  2236     1
 2219  2239     1
 2219  2240     1
 2220  2224     1
 2220  2225     1
 2220  2228     1
 2220  2229     1
 2220  2237     1
 2220  2239     1
 2220  2240     1
 2221  2223     1
 2221  2227     1
 2221  2235     1
 2221  2236     1
 2221  2238     1
 2222  2226     1
 2222  2230     1
 2222  2235     1
 2222  2236     1
 2222  2238     1
 2223  2228     1
 2223  2229     1
 2223  2231     1
 2223  2234     1
 2224  2226     1
 2224  2227     1
 2224  2230     1
 2225  2227     1
 2225  2232     1
 2225  2233     1
 2226  2229     1
 2226  2231     1
 2227  2231     1
 2227  2234     1
 2228  2230     1
 2229  2232     1
 2229  2233     1
 2234  2241     1
 2235  2237     1
 2235  2239     1
 2235  2240     1
 2236  2239     1
 2236  2240     1
 2237  2238     1
 2238  2242     1
 2238  2243     1
 2238  2244     1
 2239  2241     1
 2240  2245     1
 2241  2246     1
 2241  2247     1
 2241  2248     1
 2242  2245     1
 2243  2245     1
 2244  2249     1
 2244  2250     1
 2244  2269     1
 2245  2251     1
 2245  2265     1
 2245  2270     1
 2245  2271     1
 2246  2249     1
 2246  2250     1
 2246  2269     1
 2247  2249     1
 2247  2250     1
 2247  2269     1
 2248  2252     1
 2248  2253     1
 2248  2266     1
 2248  2267     1
 2248  2272     1
 2249  2251     1
 2249  2265     1
 2249  2270     1
 2249  2271     1
 2250  2254     1
 2250  2258     1
 2250  2266     1
 2250  2267     1
 2250  2270     1
 2250  2271     1
 2251  2255     1
 2251  2256     1
 2251  2259     1
 2251  2260     1
 2251  2268     1
 2251  2270     1
 2251  2271     1
 2252  2254     1
 2252  2258     1
 2252  2266     1
 2252  2267     1
 2252  2269     1
 2253  2257     1
 2253  2261     1
 2253  2266     1
 2253  2267     1
 2253  2269     1
 2254  2259     1
 2254  2260     1
 2254  2262     1
 2254  2265     1
 2255  2257     1
 2255  2258     1
 2255  2261     1
 2256  2258     1
 2256  2263     1
 2256  2264     1
 2257  2260     1
 2257  2262     1
 2258  2262     1
 2258  2265     1
 2259  2261     1
 2260  2263     1
 2260  2264     1
 2265  2272     1
 2266  2268     1
 2266  2270     1
 2266  2271     1
 2267  2270     1
 2267  2271     1
 2268  2269     1
 2269  2273     1
 2269  2274     1
 2269  2275     1
 2270  2272     1
 2271  2276     1
 2272  2277     1
 2272  2278     1
 2272  2279     1
 2273  2276     1
 2274  2276     1
 2275  2280     1
 2275  2281     1
 2275  2302     1
 2276  2282     1
 2276  2298     1
 2276  2303     1
 2276  2304     1
 2277  2280     1
 2277  2281     1
 2277  2302     1
 2278  2280     1
 2278  2281     1
 2278  2302     1
 2279  2283     1
 2279  2284     1
 2279  2299     1
 2279  2300     1
 2279  2305     1
 2280  2282     1
 2280  2298     1
 2280  2303     1
 2280  2304     1
 2281  2287     1
 2281  2293     1
 2281  2299     1
 2281  2300     1
 2281  2303     1
 2281  2304     1
 2282  2285     1
 2282  2286     1
 2282  2288     1
 2282  2292     1
 2282  2301     1
 2282  2303     1
 2282  2304     1
 2283  2287     1
 2283  2293     1
 2283  2299     1
 2283  2300     1
 2283  2302     1
 2284  2290     1
 2284  2294     1
 2284  2299     1
 2284  2300     1
 2284  2302     1
 2285  2288     1
 2285  2290     1
 2285  2296     1
 2285  2297     1
 2286  2289     1
 2286  2292     1
 2286  2295     1
 2287  2292     1
 2287  2294     1
 2287  2298     1
 2288  2293     1
 2289  2293     1
 2289  2296     1
 2289  2297     1
 2290  2295     1
 2291  2293     1
 2291  2294     1
 2292  2294     1
 2293  2295     1
 2293  2298     1
 2298  2305     1
 2299  2301     1
 2299  2303     1
 2299  2304     1
 2300  2303     1
 2300  2304     1
 2301  2302     1
 2302  2306     1
 2302  2307     1
 2302  2308     1
 2303  2305     1
 2304  2309     1
 2305  2310     1
 2305  2311     1
 2305  2312     1
 2306  2309     1
 2307  2309     1
 2308  2313     1
 2308  2314     1
 2308  2336     1
 2309  2315     1
 2309  2332     1
 2309  2337     1
 2309  2338     1
 2310  2313     1
 2310  2314     1
 2310  2336     1
 2311  2313     1
 2311  2314     1
 2311  2336     1
 2312  2316     1
 2312  2317     1
 2312  2333     1
 2312  2334     1
 2312  2339     1
 2313  2315     1
 2313  2332     1
 2313  2337     1
 2313  2338     1
 2314  2318     1
 2314  2330     1
 2314  2333     1
 2314  2334     1
 2314  2337     1
 2314  2338     1
 2315  2322     1
 2315  2328     1
 2315  2329     1
 2315  2331     1
 2315  2335     1
 2315  2337     1
 2315  2338     1
 2316  2318     1
 2316  2330     1
 2316  2333     1
 2316  2334     1
 2316  2336     1
 2317  2323     1
 2317  2326     1
 2317  2333     1
 2317  2334     1
 2317  2336     1
 2318  2319     1
 2318  2324     1
 2318  2327     1
 2318  2331     1
 2318  2332     1
 2319  2325     1
 2319  2326     1
 2320  2322     1
 2320  2324     1
 2321  2322     1
 2321  2324     1
 2322  2325     1
 2322  2326     1
 2322  2329     1
 2322  2330     1
 2323  2327     1
 2323  2328     1
 2324  2329     1
 2325  2327     1
 2325  2328     1
 2326  2330     1
 2327  2329     1
 2328  2331     1
 2330  2332     1
 2332  2339     1
 2333  2335     1
 2333  2337     1
 2333  2338     1
 2334  2337     1
 2334  2338     1
 2335  2336     1
 2336  2340     1
 2336  2341     1
 2336  2342     1
 2337  2339     1
 2338  2343     1
 2339  2344     1
 2339  2345     1
 2339  2346     1
 2340  2343     1
 2341  2343     1
 2342  2347     1
 2342  2348     1
 2342  2367     1
 2343  2349     1
 2343  2363     1
 2343  2368     1
 2343  2369     1
 2344  2347     1
 2344  2348     1
 2344  2367     1
 2345  2347     1
 2345  2348     1
 2345  2367     1
 2346  2350     1
 2346  2351     1
 2346  2364     1
 2346  2365     1
 2346  2370     1
 2347  2349     1
 2347  2363     1
 2347  2368     1
 2347  2369     1
 2348  2352     1
 2348  2356     1
 2348  2364     1
 2348  2365     1
 2348  2368     1
 2348  2369     1
 2349  2353     1
 2349  2354     1
 2349  2357     1
 2349  2358     1
 2349  2366     1
 2349  2368     1
 2349  2369     1
 2350  2352     1
 2350  2356     1
 2350  2364     1
 2350  2365     1
 2350  2367     1
 2351  2355     1
 2351  2359     1
 2351  2364     1
 2351  2365     1
 2351  2367     1
 2352  2357     1
 2352  2358     1
 2352  2360     1
 2352  2363     1
 2353  2355     1
 2353  2356     1
 2353  2359     1
 2354  2356     1
 2354  2361     1
 2354  2362     1
 2355  2358     1
 2355  2360     1
 2356  2360     1
 2356  2363     1
 2357  2359     1
 2358  2361     1
 2358  2362     1
 2363  2370     1
 2364  2366     1
 2364  2368     1
 2364  2369     1
 2365  2368     1
 2365  2369     1
 2366  2367     1
 2367  2371     1
 2367  2372     1
 2367  2373     1
 2368  2370     1
 2369  2374     1
 2370  2375     1
 2370  2376     1
 2370  2377     1
 2371  2374     1
 2372  2374     1
 2373  2378     1
 2373  2379     1
 2373  2401     1
 2374  2380     1
 2374  2397     1
 2374  2402     1
 2374  2403     1
 2375  2378     1
 2375  2379     1
 2375  2401     1
 2376  2378     1
 2376  2379     1
 2376  2401     1
 2377  2381     1
 2377  2382     1
 2377  2398     1
 2377  2399     1
 2377  2404     1
 2378  2380     1
 2378  2397     1
 2378  2402     1
 2378  2403     1
 2379  2383     1
 2379  2395     1
 2379  2398     1
 2379  2399     1
 2379  2402     1
 2379  2403     1
 2380  2387     1
 2380  2393     1
 2380  2394     1
 2380  2396     1
 2380  2400     1
 2380  2402     1
 2380  2403     1
 2381  2383     1
 2381  2395     1
 2381  2398     1
 2381  2399     1
 2381  2401     1
 2382  2388     1
 2382  2391     1
 2382  2398     1
 2382  2399     1
 2382  2401     1
 2383  2384     1
 2383  2389     1
 2383  2392     1
 2383  2396     1
 2383  2397     1
 2384  2390     1
 2384  2391     1
 2385  2387     1
 2385  2389     1
 2386  2387     1
 2386  2389     1
 2387  2390     1
 2387  2391     1
 2387  2394     1
 2387  2395     1
 2388  2392     1
 2388  2393     1
 2389  2394     1
 2390  2392     1
 2390  2393     1
 2391  2395     1
 2392  2394     1
 2393  2396     1
 2395  2397     1
 2397  2404     1
 2398  2400     1
 2398  2402     1
 2398  2403     1
 2399  2402     1
 2399  2403     1
 2400  2401     1
 2401  2405     1
 2401  2406     1
 2401  2407     1
 2402  2404     1
 2403  2408     1
 2404  2409     1
 2404  2410     1
 2404  2411     1
 2405  2408     1
 2406  2408     1
 2407  2412     1
 2407  2413     1
 2407  2431     1
 2408  2414     1
 2408  2427     1
 2408  2432     1
 2408  2433     1
 2409  2412     1
 2409  2413     1
 2409  2431     1
 2410  2412     1
 2410  2413     1
 2410  2431     1
 2411  2415     1
 2411  2416     1
 2411  2428     1
 2411  2429     1
 2411  2434     1
 2412  2414     1
 2412  2427     1
 2412  2432     1
 2412  2433     1
 2413  2417     1
 2413  2419     1
 2413  2428     1
 2413  2429     1
 2413  2432     1
 2413  2433     1
 2414  2418     1
 2414  2420     1
 2414  2421     1
 2414  2425     1
 2414  2430     1
 2414  2432     1
 2414  2433     1
 2415  2417     1
 2415  2419     1
 2415  2428     1
 2415  2429     1
 2415  2431     1
 2416  2422     1
 2416  2423     1
 2416  2426     1
 2416  2428     1
 2416  2429     1
 2416  2431     1
 2417  2420     1
 2417  2421     1
 2417  2424     1
 2417  2427     1
 2418  2419     1
 2418  2423     1
 2418  2426     1
 2419  2424     1
 2419  2425     1
 2419  2427     1
 2420  2422     1
 2420  2423     1
 2421  2426     1
 2422  2424     1
 2422  2425     1
 2424  2426     1
 2427  2434     1
 2428  2430     1
 2428  2432     1
 2428  2433     1
 2429  2432     1
 2429  2433     1
 2430  2431     1
 2431  2435     1
 2431  2436     1
 2431  2437     1
 2432  2434     1
 2433  2438     1
 2434  2439     1
 2434  2440     1
 2434  2441     1
 2435  2438     1
 2436  2438     1
 2437  2442     1
 2437  2443     1
 2437  2464     1
 2438  2444     1
 2438  2460     1
 2438  2465     1
 2438  2466     1
 2439  2442     1
 2439  2443     1
 2439  2464     1
 2440  2442     1
 2440  2443     1
 2440  2464     1
 2441  2445     1
 2441  2446     1
 2441  2461     1
 2441  2462     1
 2441  2467     1
 2442  2444     1
 2442  2460     1
 2442  2465     1
 2442  2466     1
 2443  2449     1
 2443  2455     1
 2443  2461     1
 2443  2462     1
 2443  2465     1
 2443  2466     1
 2444  2447     1
 2444  2448     1
 2444  2450     1
 2444  2454     1
 2444  2463     1
 2444  2465     1
 2444  2466     1
 2445  2449     1
 2445  2455     1
 2445  2461     1
 2445  2462     1
 2445  2464     1
 2446  2452     1
 2446  2456     1
 2446  2461     1
 2446  2462     1
 2446  2464     1
 2447  2450     1
 2447  2452     1
 2447  2458     1
 2447  2459     1
 2448  2451     1
 2448  2454     1
 2448  2457     1
 2449  2454     1
 2449  2456     1
 2449  2460     1
 2450  2455     1
 2451  2455     1
 2451  2458     1
 2451  2459     1
 2452  2457     1
 2453  2455     1
 2453  2456     1
 2454  2456     1
 2455  2457     1
 2455  2460     1
 2460  2467     1
 2461  2463     1
 2461  2465     1
 2461  2466     1
 2462  2465     1
 2462  2466     1
 2463  2464     1
 2464  2468     1
 2464  2469     1
 2464  2470     1
 2465  2467     1
 2466  2471     1
 2467  2472     1
 2467  2473     1
 2467  2474     1
 2468  2471     1
 2469  2471     1
 2470  2475     1
 2470  2476     1
 2470  2498     1
 2471  2477     1
 2471  2494     1
 2471  2499     1
 2471  2500     1
 2472  2475     1
 2472  2476     1
 2472  2498     1
 2473  2475     1
 2473  2476     1
 2473  2498     1
 2474  2478     1
 2474  2479     1
 2474  2495     1
 2474  2496     1
 2474  2501     1
 2475  2477     1
 2475  2494     1
 2475  2499     1
 2475  2500     1
 2476  2480     1
 2476  2492     1
 2476  2495     1
 2476  2496     1
 2476  2499     1
 2476  2500     1
 2477  2484     1
 2477  2490     1
 2477  2491     1
 2477  2493     1
 2477  2497     1
 2477  2499     1
 2477  2500     1
 2478  2480     1
 2478  2492     1
 2478  2495     1
 2478  2496     1
 2478  2498     1
 2479  2485     1
 2479  2488     1
 2479  2495     1
 2479  2496     1
 2479  2498     1
 2480  2481     1
 2480  2486     1
 2480  2489     1
 2480  2493     1
 2480  2494     1
 2481  2487     1
 2481  2488     1
 2482  2484     1
 2482  2486     1
 2483  2484     1
 2483  2486     1
 2484  2487     1
 2484  2488     1
 2484  2491     1
 2484  2492     1
 2485  2489     1
 2485  2490     1
 2486  2491     1
 2487  2489     1
 2487  2490     1
 2488  2492     1
 2489  2491     1
 2490  2493     1
 2492  2494     1
 2494  2501     1
 2495  2497     1
 2495  2499     1
 2495  2500     1
 2496  2499     1
 2496  2500     1
 2497  2498     1
 2498  2502     1
 2498  2503     1
 2498  2504     1
 2499  2501     1
 2500  2505     1
 2501  2506     1
 2501  2507     1
 2501  2508     1
 2502  2505     1
 2503  2505     1
 2504  2509     1
 2504  2510     1
 2504  2532     1
 2505  2511     1
 2505  2528     1
 2505  2533     1
 2505  2534     1
 2506  2509     1
 2506  2510     1
 2506  2532     1
 2507  2509     1
 2507  2510     1
 2507  2532     1
 2508  2512     1
 2508  2513     1
 2508  2529     1
 2508  2530     1
 2508  2535     1
 2509  2511     1
 2509  2528     1
 2509  2533     1
 2509  2534     1
 2510  2514     1
 2510  2526     1
 2510  2529     1
 2510  2530     1
 2510  2533     1
 2510  2534     1
 2511  2518     1
 2511  2524     1
 2511  2525     1
 2511  2527     1
 2511  2531     1
 2511  2533     1
 2511  2534     1
 2512  2514     1
 2512  2526     1
 2512  2529     1
 2512  2530     1
 2512  2532     1
 2513  2519     1
 2513  2522     1
 2513  2529     1
 2513  2530     1
 2513  2532     1
 2514  2515     1
 2514  2520     1
 2514  2523     1
 2514  2527     1
 2514  2528     1
 2515  2521     1
 2515  2522     1
 2516  2518     1
 2516  2520     1
 2517  2518     1
 2517  2520     1
 2518  2521     1
 2518  2522     1
 2518  2525     1
 2518  2526     1
 2519  2523     1
 2519  2524     1
 2520  2525     1
 2521  2523     1
 2521  2524     1
 2522  2526     1
 2523  2525     1
 2524  2527     1
 2526  2528     1
 2528  2535     1
 2529  2531     1
 2529  2533     1
 2529  2534     1
 2530  2533     1
 2530  2534     1
 2531  2532     1
 2532  2536     1
 2532  2537     1
 2532  2538     1
 2533  2535     1
 2534  2539     1
 2535  2540     1
 2535  2541     1
 2535  2542     1
 2536  2539     1
 2537  2539     1
 2538  2543     1
 2538  2544     1
 2538  2566     1
 2539  2545     1
 2539  2562     1
 2539  2567     1
 2539  2568     1
 2540  2543     1
 2540  2544     1
 2540  2566     1
 2541  2543     1
 2541  2544     1
 2541  2566     1
 2542  2546     1
 2542  2547     1
 2542  2563     1
 2542  2564     1
 2542  2569     1
 2543  2545     1
 2543  2562     1
 2543  2567     1
 2543  2568     1
 2544  2548     1
 2544  2560     1
 2544  2563     1
 2544  2564     1
 2544  2567     1
 2544  2568     1
 2545  2552     1
 2545  2558     1
 2545  2559     1
 2545  2561     1
 2545  2565     1
 2545  2567     1
 2545  2568     1
 2546  2548     1
 2546  2560     1
 2546  2563     1
 2546  2564     1
 2546  2566     1
 2547  2553     1
 2547  2556     1
 2547  2563     1
 2547  2564     1
 2547  2566     1
 2548  2549     1
 2548  2554     1
 2548  2557     1
 2548  2561     1
 2548  2562     1
 2549  2555     1
 2549  2556     1
 2550  2552     1
 2550  2554     1
 2551  2552     1
 2551  2554     1
 2552  2555     1
 2552  2556     1
 2552  2559     1
 2552  2560     1
 2553  2557     1
 2553  2558     1
 2554  2559     1
 2555  2557     1
 2555  2558     1
 2556  2560     1
 2557  2559     1
 2558  2561     1
 2560  2562     1
 2562  2569     1
 2563  2565     1
 2563  2567     1
 2563  2568     1
 2564  2567     1
 2564  2568     1
 2565  2566     1
 2566  2570     1
 2566  2571     1
 2566  2572     1
 2567  2569     1
 2568  2573     1
 2569  2574     1
 2569  2575     1
 2569  2576     1
 2570  2573     1
 2571  2573     1
 2572  2577     1
 2572  2578     1
 2572  2599     1
 2573  2579     1
 2573  2595     1
 2573  2600     1
 2573  2601     1
 2574  2577     1
 2574  2578     1
 2574  2599     1
 2575  2577     1
 2575  2578     1
 2575  2599     1
 2576  2580     1
 2576  2581     1
 2576  2596     1
 2576  2597     1
 2576  2602     1
 2577  2579     1
 2577  2595     1
 2577  2600     1
 2577  2601     1
 2578  2584     1
 2578  2590     1
 2578  2596     1
 2578  2597     1
 2578  2600     1
 2578  2601     1
 2579  2582     1
 2579  2583     1
 2579  2585     1
 2579  2589     1
 2579  2598     1
 2579  2600     1
 2579  2601     1
 2580  2584     1
 2580  2590     1
 2580  2596     1
 2580  2597     1
 2580  2599     1
 2581  2587     1
 2581  2591     1
 2581  2596     1
 2581  2597     1
 2581  2599     1
 2582  2585     1
 2582  2587     1
 2582  2593     1
 2582  2594     1
 2583  2586     1
 2583  2589     1
 2583  2592     1
 2584  2589     1
 2584  2591     1
 2584  2595     1
 2585  2590     1
 2586  2590     1
 2586  2593     1
 2586  2594     1
 2587  2592     1
 2588  2590     1
 2588  2591     1
 2589  2591     1
 2590  2592     1
 2590  2595     1
 2595  2602     1
 2596  2598     1
 2596  2600     1
 2596  2601     1
 2597  2600     1
 2597  2601     1
 2598  2599     1
 2599  2603     1
 2599  2604     1
 2599  2605     1
 2600  2602     1
 2601  2606     1
 2602  2607     1
 2602  2608     1
 2602  2609     1
 2603  2606     1
 2604  2606     1
 2605  2610     1
 2605  2611     1
 2605  2632     1
 2606  2612     1
 2606  2628     1
 2606  2633     1
 2606  2634     1
 2607  2610     1
 2607  2611     1
 2607  2632     1
 2608  2610     1
 2608  2611     1
 2608  2632     1
 2609  2613     1
 2609  2614     1
 2609  2629     1
 2609  2630     1
 2609  2635     1
 2610  2612     1
 2610  2628     1
 2610  2633     1
 2610  2634     1
 2611  2617     1
 2611  2623     1
 2611  2629     1
 2611  2630     1
 2611  2633     1
 2611  2634     1
 2612  2615     1
 2612  2616     1
 2612  2618     1
 2612  2622     1
 2612  2631     1
 2612  2633     1
 2612  2634     1
 2613  2617     1
 2613  2623     1
 2613  2629     1
 2613  2630     1
 2613  2632     1
 2614  2620     1
 2614  2624     1
 2614  2629     1
 2614  2630     1
 2614  2632     1
 2615  2618     1
 2615  2620     1
 2615  2626     1
 2615  2627     1
 2616  2619     1
 2616  2622     1
 2616  2625     1
 2617  2622     1
 2617  2624     1
 2617  2628     1
 2618  2623     1
 2619  2623     1
 2619  2626     1
 2619  2627     1
 2620  2625     1
 2621  2623     1
 2621  2624     1
 2622  2624     1
 2623  2625     1
 2623  2628     1
 2628  2635     1
 2629  2631     1
 2629  2633     1
 2629  2634     1
 2630  2633     1
 2630  2634     1
 2631  2632     1
 2632  2636     1
 2632  2637     1
 2632  2638     1
 2633  2635     1
 2634  2639     1
 2635  2640     1
 2635  2641     1
 2635  2642     1
 2636  2639     1
 2637  2639     1
 2638  2643     1
 2638  2644     1
 2638  2666     1
 2639  2645     1
 2639  2662     1
 2639  2667     1
 2639  2668     1
 2640  2643     1
 2640  2644     1
 2640  2666     1
 2641  2643     1
 2641  2644     1
 2641  2666     1
 2642  2646     1
 2642  2647     1
 2642  2663     1
 2642  2664     1
 2642  2669     1
 2643  2645     1
 2643  2662     1
 2643  2667     1
 2643  2668     1
 2644  2648     1
 2644  2660     1
 2644  2663     1
 2644  2664     1
 2644  2667     1
 2644  2668     1
 2645  2652     1
 2645  2658     1
 2645  2659     1
 2645  2661     1
 2645  2665     1
 2645  2667     1
 2645  2668     1
 2646  2648     1
 2646  2660     1
 2646  2663     1
 2646  2664     1
 2646  2666     1
 2647  2653     1
 2647  2656     1
 2647  2663     1
 2647  2664     1
 2647  2666     1
 2648  2649     1
 2648  2654     1
 2648  2657     1
 2648  2661     1
 2648  2662     1
 2649  2655     1
 2649  2656     1
 2650  2652     1
 2650  2654     1
 2651  2652     1
 2651  2654     1
 2652  2655     1
 2652  2656     1
 2652  2659     1
 2652  2660     1
 2653  2657     1
 2653  2658     1
 2654  2659     1
 2655  2657     1
 2655  2658     1
 2656  2660     1
 2657  2659     1
 2658  2661     1
 2660  2662     1
 2662  2669     1
 2663  2665     1
 2663  2667     1
 2663  2668     1
 2664  2667     1
 2664  2668     1
 2665  2666     1
 2666  2670     1
 2666  2671     1
 2666  2672     1
 2667  2669     1
 2668  2673     1
 2669  2674     1
 2669  2675     1
 2669  2676     1
 2670  2673     1
 2671  2673     1
 2672  2677     1
 2672  2678     1
 2672  2696     1
 2673  2679     1
 2673  2692     1
 2673  2697     1
 2673  2698     1
 2674  2677     1
 2674  2678     1
 2674  2696     1
 2675  2677     1
 2675  2678     1
 2675  2696     1
 2676  2680     1
 2676  2681     1
 2676  2693     1
 2676  2694     1
 2676  2699     1
 2677  2679     1
 2677  2692     1
 2677  2697     1
 2677  2698     1
 2678  2682     1
 2678  2684     1
 2678  2693     1
 2678  2694     1
 2678  2697     1
 2678  2698     1
 2679  2683     1
 2679  2685     1
 2679  2686     1
 2679  2690     1
 2679  2695     1
 2679  2697     1
 2679  2698     1
 2680  2682     1
 2680  2684     1
 2680  2693     1
 2680  2694     1
 2680  2696     1
 2681  2687     1
 2681  2688     1
 2681  2691     1
 2681  2693     1
 2681  2694     1
 2681  2696     1
 2682  2685     1
 2682  2686     1
 2682  2689     1
 2682  2692     1
 2683  2684     1
 2683  2688     1
 2683  2691     1
 2684  2689     1
 2684  2690     1
 2684  2692     1
 2685  2687     1
 2685  2688     1
 2686  2691     1
 2687  2689     1
 2687  2690     1
 2689  2691     1
 2692  2699     1
 2693  2695     1
 2693  2697     1
 2693  2698     1
 2694  2697     1
 2694  2698     1
 2695  2696     1
 2696  2700     1
 2696  2701     1
 2696  2702     1
 2697  2699     1
 2698  2703     1
 2699  2704     1
 2699  2705     1
 2699  2706     1
 2700  2703     1
 2701  2703     1
 2702  2707     1
 2702  2708     1
 2702  2727     1
 2703  2709     1
 2703  2723     1
 2703  2728     1
 2703  2729     1
 2704  2707     1
 2704  2708     1
 2704  2727     1
 2705  2707     1
 2705  2708     1
 2705  2727     1
 2706  2710     1
 2706  2711     1
 2706  2724     1
 2706  2725     1
 2706  2730     1
 2707  2709     1
 2707  2723     1
 2707  2728     1
 2707  2729     1
 2708  2712     1
 2708  2716     1
 2708  2724     1
 2708  2725     1
 2708  2728     1
 2708  2729     1
 2709  2713     1
 2709  2714     1
 2709  2717     1
 2709  2718     1
 2709  2726     1
 2709  2728     1
 2709  2729     1
 2710  2712     1
 2710  2716     1
 2710  2724     1
 2710  2725     1
 2710  2727     1
 2711  2715     1
 2711  2719     1
 2711  2724     1
 2711  2725     1
 2711  2727     1
 2712  2717     1
 2712  2718     1
 2712  2720     1
 2712  2723     1
 2713  2715     1
 2713  2716     1
 2713  2719     1
 2714  2716     1
 2714  2721     1
 2714  2722     1
 2715  2718     1
 2715  2720     1
 2716  2720     1
 2716  2723     1
 2717  2719     1
 2718  2721     1
 2718  2722     1
 2723  2730     1
 2724  2726     1
 2724  2728     1
 2724  2729     1
 2725  2728     1
 2725  2729     1
 2726  2727     1
 2727  2731     1
 2727  2732     1
 2727  2733     1
 2728  2730     1
 2729  2734     1
 2730  2735     1
 2730  2736     1
 2730  2737     1
 2731  2734     1
 2732  2734     1
 2733  2738     1
 2733  2739     1
 2733  2761     1
 2734  2740     1
 2734  2757     1
 2734  2762     1
 2734  2763     1
 2735  2738     1
 2735  2739     1
 2735  2761     1
 2736  2738     1
 2736  2739     1
 2736  2761     1
 2737  2741     1
 2737  2742     1
 2737  2758     1
 2737  2759     1
 2737  2764     1
 2738  2740     1
 2738  2757     1
 2738  2762     1
 2738  2763     1
 2739  2743     1
 2739  2755     1
 2739  2758     1
 2739  2759     1
 2739  2762     1
 2739  2763     1
 2740  2747     1
 2740  2753     1
 2740  2754     1
 2740  2756     1
 2740  2760     1
 2740  2762     1
 2740  2763     1
 2741  2743     1
 2741  2755     1
 2741  2758     1
 2741  2759     1
 2741  2761     1
 2742  2748     1
 2742  2751     1
 2742  2758     1
 2742  2759     1
 2742  2761     1
 2743  2744     1
 2743  2749     1
 2743  2752     1
 2743  2756     1
 2743  2757     1
 2744  2750     1
 2744  2751     1
 2745  2747     1
 2745  2749     1
 2746  2747     1
 2746  2749     1
 2747  2750     1
 2747  2751     1
 2747  2754     1
 2747  2755     1
 2748  2752     1
 2748  2753     1
 2749  2754     1
 2750  2752     1
 2750  2753     1
 2751  2755     1
 2752  2754     1
 2753  2756     1
 2755  2757     1
 2757  2764     1
 2758  2760     1
 2758  2762     1
 2758  2763     1
 2759  2762     1
 2759  2763     1
 2760  2761     1
 2761  2765     1
 2761  2766     1
 2761  2767     1
 2762  2764     1
 2763  2768     1
 2764  2769     1
 2764  2770     1
 2764  2771     1
 2765  2768     1
 2766  2768     1
 2767  2772     1
 2767  2773     1
 2767  2792     1
 2768  2774     1
 2768  2788     1
 2768  2793     1
 2768  2794     1
 2769  2772     1
 2769  2773     1
 2769  2792     1
 2770  2772     1
 2770  2773     1
 2770  2792     1
 2771  2775     1
 2771  2776     1
 2771  2789     1
 2771  2790     1
 2771  2795     1
 2772  2774     1
 2772  2788     1
 2772  2793     1
 2772  2794     1
 2773  2777     1
 2773  2781     1
 2773  2789     1
 2773  2790     1
 2773  2793     1
 2773  2794     1
 2774  2778     1
 2774  2779     1
 2774  2782     1
 2774  2783     1
 2774  2791     1
 2774  2793     1
 2774  2794     1
 2775  2777     1
 2775  2781     1
 2775  2789     1
 2775  2790     1
 2775  2792     1
 2776  2780     1
 2776  2784     1
 2776  2789     1
 2776  2790     1
 2776  2792     1
 2777  2782     1
 2777  2783     1
 2777  2785     1
 2777  2788     1
 2778  2780     1
 2778  2781     1
 2778  2784     1
 2779  2781     1
 2779  2786     1
 2779  2787     1
 2780  2783     1
 2780  2785     1
 2781  2785     1
 2781  2788     1
 2782  2784     1
 2783  2786     1
 2783  2787     1
 2788  2795     1
 2789  2791     1
 2789  2793     1
 2789  2794     1
 2790  2793     1
 2790  2794     1
 2791  2792     1
 2793  2795     1

[ angles ] 
; ai	aj	ak	funct	th0	cth	S0	Kub
    1     2     3     5
    2     3     4     5
    2     3     5     5
    2     3     6     5
    4     3     5     5
    4     3     6     5
    5     3     6     5
    3     6     7     5
    3     6     8     5
    3     6    30     5
    7     6     8     5
    7     6    30     5
    8     6    30     5
    6     8     9     5
    8     9    10     5
    8     9    11     5
    8     9    26     5
   10     9    11     5
   10     9    26     5
   11     9    26     5
    9    11    12     5
    9    11    24     5
   12    11    24     5
   11    12    16     5
   11    12    22     5
   16    12    22     5
   14    13    15     5
   14    13    17     5
   15    13    17     5
   12    16    17     5
   13    17    16     5
   13    17    18     5
   16    17    18     5
   17    18    19     5
   17    18    20     5
   19    18    20     5
   18    20    21     5
   18    20    22     5
   21    20    22     5
   12    22    20     5
   12    22    23     5
   20    22    23     5
   22    23    24     5
   11    24    23     5
   11    24    25     5
   23    24    25     5
    9    26    27     5
    9    26    28     5
    9    26    30     5
   27    26    28     5
   27    26    30     5
   28    26    30     5
   26    28    29     5
    6    30    26     5
    6    30    31     5
    6    30    32     5
   26    30    31     5
   26    30    32     5
   31    30    32     5
   30    32    33     5
   32    33    34     5
   32    33    35     5
   32    33    36     5
   34    33    35     5
   34    33    36     5
   35    33    36     5
   33    36    37     5
   36    37    38     5
   36    37    39     5
   36    37    40     5
   38    37    39     5
   38    37    40     5
   39    37    40     5
   37    40    41     5
   37    40    42     5
   37    40    61     5
   41    40    42     5
   41    40    61     5
   42    40    61     5
   40    42    43     5
   42    43    44     5
   42    43    45     5
   42    43    57     5
   44    43    45     5
   44    43    57     5
   45    43    57     5
   43    45    46     5
   43    45    50     5
   46    45    50     5
   45    46    47     5
   45    46    48     5
   47    46    48     5
   46    48    49     5
   46    48    53     5
   49    48    53     5
   45    50    51     5
   45    50    52     5
   51    50    52     5
   50    52    53     5
   48    53    52     5
   48    53    54     5
   52    53    54     5
   53    54    55     5
   53    54    56     5
   55    54    56     5
   43    57    58     5
   43    57    59     5
   43    57    61     5
   58    57    59     5
   58    57    61     5
   59    57    61     5
   57    59    60     5
   40    61    57     5
   40    61    62     5
   40    61    63     5
   57    61    62     5
   57    61    63     5
   62    61    63     5
   61    63    64     5
   63    64    65     5
   63    64    66     5
   63    64    67     5
   65    64    66     5
   65    64    67     5
   66    64    67     5
   64    67    68     5
   67    68    69     5
   67    68    70     5
   67    68    71     5
   69    68    70     5
   69    68    71     5
   70    68    71     5
   68    71    72     5
   68    71    73     5
   68    71    95     5
   72    71    73     5
   72    71    95     5
   73    71    95     5
   71    73    74     5
   73    74    75     5
   73    74    76     5
   73    74    91     5
   75    74    76     5
   75    74    91     5
   76    74    91     5
   74    76    77     5
   74    76    89     5
   77    76    89     5
   76    77    81     5
   76    77    87     5
   81    77    87     5
   79    78    80     5
   79    78    82     5
   80    78    82     5
   77    81    82     5
   78    82    81     5
   78    82    83     5
   81    82    83     5
   82    83    84     5
   82    83    85     5
   84    83    85     5
   83    85    86     5
   83    85    87     5
   86    85    87     5
   77    87    85     5
   77    87    88     5
   85    87    88     5
   87    88    89     5
   76    89    88     5
   76    89    90     5
   88    89    90     5
   74    91    92     5
   74    91    93     5
   74    91    95     5
   92    91    93     5
   92    91    95     5
   93    91    95     5
   91    93    94     5
   71    95    91     5
   71    95    96     5
   71    95    97     5
   91    95    96     5
   91    95    97     5
   96    95    97     5
   95    97    98     5
   97    98    99     5
   97    98   100     5
   97    98   101     5
   99    98   100     5
   99    98   101     5
  100    98   101     5
   98   101   102     5
  101   102   103     5
  101   102   104     5
  101   102   105     5
  103   102   104     5
  103   102   105     5
  104   102   105     5
  102   105   106     5
  102   105   107     5
  102   105   128     5
  106   105   107     5
  106   105   128     5
  107   105   128     5
  105   107   108     5
  107   108   109     5
  107   108   110     5
  107   108   124     5
  109   108   110     5
  109   108   124     5
  110   108   124     5
  108   110   113     5
  108   110   119     5
  113   110   119     5
  112   111   119     5
  112   111   120     5
  119   111   120     5
  111   112   113     5
  110   113   112     5
  110   113   114     5
  112   113   114     5
  116   115   120     5
  115   116   117     5
  115   116   118     5
  117   116   118     5
  116   118   119     5
  110   119   111     5
  110   119   118     5
  111   119   118     5
  111   120   115     5
  111   120   121     5
  115   120   121     5
  120   121   122     5
  120   121   123     5
  122   121   123     5
  108   124   125     5
  108   124   126     5
  108   124   128     5
  125   124   126     5
  125   124   128     5
  126   124   128     5
  124   126   127     5
  105   128   124     5
  105   128   129     5
  105   128   130     5
  124   128   129     5
  124   128   130     5
  129   128   130     5
  128   130   131     5
  130   131   132     5
  130   131   133     5
  130   131   134     5
  132   131   133     5
  132   131   134     5
  133   131   134     5
  131   134   135     5
  134   135   136     5
  134   135   137     5
  134   135   138     5
  136   135   137     5
  136   135   138     5
  137   135   138     5
  135   138   139     5
  135   138   140     5
  135   138   159     5
  139   138   140     5
  139   138   159     5
  140   138   159     5
  138   140   141     5
  140   141   142     5
  140   141   143     5
  140   141   155     5
  142   141   143     5
  142   141   155     5
  143   141   155     5
  141   143   144     5
  141   143   148     5
  144   143   148     5
  143   144   145     5
  143   144   146     5
  145   144   146     5
  144   146   147     5
  144   146   151     5
  147   146   151     5
  143   148   149     5
  143   148   150     5
  149   148   150     5
  148   150   151     5
  146   151   150     5
  146   151   152     5
  150   151   152     5
  151   152   153     5
  151   152   154     5
  153   152   154     5
  141   155   156     5
  141   155   157     5
  141   155   159     5
  156   155   157     5
  156   155   159     5
  157   155   159     5
  155   157   158     5
  138   159   155     5
  138   159   160     5
  138   159   161     5
  155   159   160     5
  155   159   161     5
  160   159   161     5
  159   161   162     5
  161   162   163     5
  161   162   164     5
  161   162   165     5
  163   162   164     5
  163   162   165     5
  164   162   165     5
  162   165   166     5
  165   166   167     5
  165   166   168     5
  165   166   169     5
  167   166   168     5
  167   166   169     5
  168   166   169     5
  166   169   170     5
  166   169   171     5
  166   169   189     5
  170   169   171     5
  170   169   189     5
  171   169   189     5
  169   171   172     5
  171   172   173     5
  171   172   174     5
  171   172   185     5
  173   172   174     5
  173   172   185     5
  174   172   185     5
  172   174   175     5
  172   174   177     5
  175   174   177     5
  174   175   176     5
  174   175   183     5
  176   175   183     5
  174   177   178     5
  174   177   179     5
  178   177   179     5
  177   179   180     5
  177   179   181     5
  180   179   181     5
  179   181   182     5
  179   181   183     5
  182   181   183     5
  175   183   181     5
  175   183   184     5
  181   183   184     5
  172   185   186     5
  172   185   187     5
  172   185   189     5
  186   185   187     5
  186   185   189     5
  187   185   189     5
  185   187   188     5
  169   189   185     5
  169   189   190     5
  169   189   191     5
  185   189   190     5
  185   189   191     5
  190   189   191     5
  189   191   192     5
  191   192   193     5
  191   192   194     5
  191   192   195     5
  193   192   194     5
  193   192   195     5
  194   192   195     5
  192   195   196     5
  195   196   197     5
  195   196   198     5
  195   196   199     5
  197   196   198     5
  197   196   199     5
  198   196   199     5
  196   199   200     5
  196   199   201     5
  196   199   220     5
  200   199   201     5
  200   199   220     5
  201   199   220     5
  199   201   202     5
  201   202   203     5
  201   202   204     5
  201   202   216     5
  203   202   204     5
  203   202   216     5
  204   202   216     5
  202   204   205     5
  202   204   209     5
  205   204   209     5
  204   205   206     5
  204   205   207     5
  206   205   207     5
  205   207   208     5
  205   207   212     5
  208   207   212     5
  204   209   210     5
  204   209   211     5
  210   209   211     5
  209   211   212     5
  207   212   211     5
  207   212   213     5
  211   212   213     5
  212   213   214     5
  212   213   215     5
  214   213   215     5
  202   216   217     5
  202   216   218     5
  202   216   220     5
  217   216   218     5
  217   216   220     5
  218   216   220     5
  216   218   219     5
  199   220   216     5
  199   220   221     5
  199   220   222     5
  216   220   221     5
  216   220   222     5
  221   220   222     5
  220   222   223     5
  222   223   224     5
  222   223   225     5
  222   223   226     5
  224   223   225     5
  224   223   226     5
  225   223   226     5
  223   226   227     5
  226   227   228     5
  226   227   229     5
  226   227   230     5
  228   227   229     5
  228   227   230     5
  229   227   230     5
  227   230   231     5
  227   230   232     5
  227   230   254     5
  231   230   232     5
  231   230   254     5
  232   230   254     5
  230   232   233     5
  232   233   234     5
  232   233   235     5
  232   233   250     5
  234   233   235     5
  234   233   250     5
  235   233   250     5
  233   235   236     5
  233   235   248     5
  236   235   248     5
  235   236   240     5
  235   236   246     5
  240   236   246     5
  238   237   239     5
  238   237   241     5
  239   237   241     5
  236   240   241     5
  237   241   240     5
  237   241   242     5
  240   241   242     5
  241   242   243     5
  241   242   244     5
  243   242   244     5
  242   244   245     5
  242   244   246     5
  245   244   246     5
  236   246   244     5
  236   246   247     5
  244   246   247     5
  246   247   248     5
  235   248   247     5
  235   248   249     5
  247   248   249     5
  233   250   251     5
  233   250   252     5
  233   250   254     5
  251   250   252     5
  251   250   254     5
  252   250   254     5
  250   252   253     5
  230   254   250     5
  230   254   255     5
  230   254   256     5
  250   254   255     5
  250   254   256     5
  255   254   256     5
  254   256   257     5
  256   257   258     5
  256   257   259     5
  256   257   260     5
  258   257   259     5
  258   257   260     5
  259   257   260     5
  257   260   261     5
  260   261   262     5
  260   261   263     5
  260   261   264     5
  262   261   263     5
  262   261   264     5
  263   261   264     5
  261   264   265     5
  261   264   266     5
  261   264   288     5
  265   264   266     5
  265   264   288     5
  266   264   288     5
  264   266   267     5
  266   267   268     5
  266   267   269     5
  266   267   284     5
  268   267   269     5
  268   267   284     5
  269   267   284     5
  267   269   270     5
  267   269   282     5
  270   269   282     5
  269   270   274     5
  269   270   280     5
  274   270   280     5
  272   271   273     5
  272   271   275     5
  273   271   275     5
  270   274   275     5
  271   275   274     5
  271   275   276     5
  274   275   276     5
  275   276   277     5
  275   276   278     5
  277   276   278     5
  276   278   279     5
  276   278   280     5
  279   278   280     5
  270   280   278     5
  270   280   281     5
  278   280   281     5
  280   281   282     5
  269   282   281     5
  269   282   283     5
  281   282   283     5
  267   284   285     5
  267   284   286     5
  267   284   288     5
  285   284   286     5
  285   284   288     5
  286   284   288     5
  284   286   287     5
  264   288   284     5
  264   288   289     5
  264   288   290     5
  284   288   289     5
  284   288   290     5
  289   288   290     5
  288   290   291     5
  290   291   292     5
  290   291   293     5
  290   291   294     5
  292   291   293     5
  292   291   294     5
  293   291   294     5
  291   294   295     5
  294   295   296     5
  294   295   297     5
  294   295   298     5
  296   295   297     5
  296   295   298     5
  297   295   298     5
  295   298   299     5
  295   298   300     5
  295   298   322     5
  299   298   300     5
  299   298   322     5
  300   298   322     5
  298   300   301     5
  300   301   302     5
  300   301   303     5
  300   301   318     5
  302   301   303     5
  302   301   318     5
  303   301   318     5
  301   303   304     5
  301   303   316     5
  304   303   316     5
  303   304   308     5
  303   304   314     5
  308   304   314     5
  306   305   307     5
  306   305   309     5
  307   305   309     5
  304   308   309     5
  305   309   308     5
  305   309   310     5
  308   309   310     5
  309   310   311     5
  309   310   312     5
  311   310   312     5
  310   312   313     5
  310   312   314     5
  313   312   314     5
  304   314   312     5
  304   314   315     5
  312   314   315     5
  314   315   316     5
  303   316   315     5
  303   316   317     5
  315   316   317     5
  301   318   319     5
  301   318   320     5
  301   318   322     5
  319   318   320     5
  319   318   322     5
  320   318   322     5
  318   320   321     5
  298   322   318     5
  298   322   323     5
  298   322   324     5
  318   322   323     5
  318   322   324     5
  323   322   324     5
  322   324   325     5
  324   325   326     5
  324   325   327     5
  324   325   328     5
  326   325   327     5
  326   325   328     5
  327   325   328     5
  325   328   329     5
  328   329   330     5
  328   329   331     5
  328   329   332     5
  330   329   331     5
  330   329   332     5
  331   329   332     5
  329   332   333     5
  329   332   334     5
  329   332   356     5
  333   332   334     5
  333   332   356     5
  334   332   356     5
  332   334   335     5
  334   335   336     5
  334   335   337     5
  334   335   352     5
  336   335   337     5
  336   335   352     5
  337   335   352     5
  335   337   338     5
  335   337   350     5
  338   337   350     5
  337   338   342     5
  337   338   348     5
  342   338   348     5
  340   339   341     5
  340   339   343     5
  341   339   343     5
  338   342   343     5
  339   343   342     5
  339   343   344     5
  342   343   344     5
  343   344   345     5
  343   344   346     5
  345   344   346     5
  344   346   347     5
  344   346   348     5
  347   346   348     5
  338   348   346     5
  338   348   349     5
  346   348   349     5
  348   349   350     5
  337   350   349     5
  337   350   351     5
  349   350   351     5
  335   352   353     5
  335   352   354     5
  335   352   356     5
  353   352   354     5
  353   352   356     5
  354   352   356     5
  352   354   355     5
  332   356   352     5
  332   356   357     5
  332   356   358     5
  352   356   357     5
  352   356   358     5
  357   356   358     5
  356   358   359     5
  358   359   360     5
  358   359   361     5
  358   359   362     5
  360   359   361     5
  360   359   362     5
  361   359   362     5
  359   362   363     5
  362   363   364     5
  362   363   365     5
  362   363   366     5
  364   363   365     5
  364   363   366     5
  365   363   366     5
  363   366   367     5
  363   366   368     5
  363   366   386     5
  367   366   368     5
  367   366   386     5
  368   366   386     5
  366   368   369     5
  368   369   370     5
  368   369   371     5
  368   369   382     5
  370   369   371     5
  370   369   382     5
  371   369   382     5
  369   371   372     5
  369   371   374     5
  372   371   374     5
  371   372   373     5
  371   372   380     5
  373   372   380     5
  371   374   375     5
  371   374   376     5
  375   374   376     5
  374   376   377     5
  374   376   378     5
  377   376   378     5
  376   378   379     5
  376   378   380     5
  379   378   380     5
  372   380   378     5
  372   380   381     5
  378   380   381     5
  369   382   383     5
  369   382   384     5
  369   382   386     5
  383   382   384     5
  383   382   386     5
  384   382   386     5
  382   384   385     5
  366   386   382     5
  366   386   387     5
  366   386   388     5
  382   386   387     5
  382   386   388     5
  387   386   388     5
  386   388   389     5
  388   389   390     5
  388   389   391     5
  388   389   392     5
  390   389   391     5
  390   389   392     5
  391   389   392     5
  389   392   393     5
  392   393   394     5
  392   393   395     5
  392   393   396     5
  394   393   395     5
  394   393   396     5
  395   393   396     5
  393   396   397     5
  393   396   398     5
  393   396   420     5
  397   396   398     5
  397   396   420     5
  398   396   420     5
  396   398   399     5
  398   399   400     5
  398   399   401     5
  398   399   416     5
  400   399   401     5
  400   399   416     5
  401   399   416     5
  399   401   402     5
  399   401   414     5
  402   401   414     5
  401   402   406     5
  401   402   412     5
  406   402   412     5
  404   403   405     5
  404   403   407     5
  405   403   407     5
  402   406   407     5
  403   407   406     5
  403   407   408     5
  406   407   408     5
  407   408   409     5
  407   408   410     5
  409   408   410     5
  408   410   411     5
  408   410   412     5
  411   410   412     5
  402   412   410     5
  402   412   413     5
  410   412   413     5
  412   413   414     5
  401   414   413     5
  401   414   415     5
  413   414   415     5
  399   416   417     5
  399   416   418     5
  399   416   420     5
  417   416   418     5
  417   416   420     5
  418   416   420     5
  416   418   419     5
  396   420   416     5
  396   420   421     5
  396   420   422     5
  416   420   421     5
  416   420   422     5
  421   420   422     5
  420   422   423     5
  422   423   424     5
  422   423   425     5
  422   423   426     5
  424   423   425     5
  424   423   426     5
  425   423   426     5
  423   426   427     5
  426   427   428     5
  426   427   429     5
  426   427   430     5
  428   427   429     5
  428   427   430     5
  429   427   430     5
  427   430   431     5
  427   430   432     5
  427   430   451     5
  431   430   432     5
  431   430   451     5
  432   430   451     5
  430   432   433     5
  432   433   434     5
  432   433   435     5
  432   433   447     5
  434   433   435     5
  434   433   447     5
  435   433   447     5
  433   435   436     5
  433   435   440     5
  436   435   440     5
  435   436   437     5
  435   436   438     5
  437   436   438     5
  436   438   439     5
  436   438   443     5
  439   438   443     5
  435   440   441     5
  435   440   442     5
  441   440   442     5
  440   442   443     5
  438   443   442     5
  438   443   444     5
  442   443   444     5
  443   444   445     5
  443   444   446     5
  445   444   446     5
  433   447   448     5
  433   447   449     5
  433   447   451     5
  448   447   449     5
  448   447   451     5
  449   447   451     5
  447   449   450     5
  430   451   447     5
  430   451   452     5
  430   451   453     5
  447   451   452     5
  447   451   453     5
  452   451   453     5
  451   453   454     5
  453   454   455     5
  453   454   456     5
  453   454   457     5
  455   454   456     5
  455   454   457     5
  456   454   457     5
  454   457   458     5
  457   458   459     5
  457   458   460     5
  457   458   461     5
  459   458   460     5
  459   458   461     5
  460   458   461     5
  458   461   462     5
  458   461   463     5
  458   461   482     5
  462   461   463     5
  462   461   482     5
  463   461   482     5
  461   463   464     5
  463   464   465     5
  463   464   466     5
  463   464   478     5
  465   464   466     5
  465   464   478     5
  466   464   478     5
  464   466   467     5
  464   466   471     5
  467   466   471     5
  466   467   468     5
  466   467   469     5
  468   467   469     5
  467   469   470     5
  467   469   474     5
  470   469   474     5
  466   471   472     5
  466   471   473     5
  472   471   473     5
  471   473   474     5
  469   474   473     5
  469   474   475     5
  473   474   475     5
  474   475   476     5
  474   475   477     5
  476   475   477     5
  464   478   479     5
  464   478   480     5
  464   478   482     5
  479   478   480     5
  479   478   482     5
  480   478   482     5
  478   480   481     5
  461   482   478     5
  461   482   483     5
  461   482   484     5
  478   482   483     5
  478   482   484     5
  483   482   484     5
  482   484   485     5
  484   485   486     5
  484   485   487     5
  484   485   488     5
  486   485   487     5
  486   485   488     5
  487   485   488     5
  485   488   489     5
  488   489   490     5
  488   489   491     5
  488   489   492     5
  490   489   491     5
  490   489   492     5
  491   489   492     5
  489   492   493     5
  489   492   494     5
  489   492   513     5
  493   492   494     5
  493   492   513     5
  494   492   513     5
  492   494   495     5
  494   495   496     5
  494   495   497     5
  494   495   509     5
  496   495   497     5
  496   495   509     5
  497   495   509     5
  495   497   498     5
  495   497   502     5
  498   497   502     5
  497   498   499     5
  497   498   500     5
  499   498   500     5
  498   500   501     5
  498   500   505     5
  501   500   505     5
  497   502   503     5
  497   502   504     5
  503   502   504     5
  502   504   505     5
  500   505   504     5
  500   505   506     5
  504   505   506     5
  505   506   507     5
  505   506   508     5
  507   506   508     5
  495   509   510     5
  495   509   511     5
  495   509   513     5
  510   509   511     5
  510   509   513     5
  511   509   513     5
  509   511   512     5
  492   513   509     5
  492   513   514     5
  492   513   515     5
  509   513   514     5
  509   513   515     5
  514   513   515     5
  513   515   516     5
  515   516   517     5
  515   516   518     5
  515   516   519     5
  517   516   518     5
  517   516   519     5
  518   516   519     5
  516   519   520     5
  519   520   521     5
  519   520   522     5
  519   520   523     5
  521   520   522     5
  521   520   523     5
  522   520   523     5
  520   523   524     5
  520   523   525     5
  520   523   543     5
  524   523   525     5
  524   523   543     5
  525   523   543     5
  523   525   526     5
  525   526   527     5
  525   526   528     5
  525   526   539     5
  527   526   528     5
  527   526   539     5
  528   526   539     5
  526   528   529     5
  526   528   531     5
  529   528   531     5
  528   529   530     5
  528   529   537     5
  530   529   537     5
  528   531   532     5
  528   531   533     5
  532   531   533     5
  531   533   534     5
  531   533   535     5
  534   533   535     5
  533   535   536     5
  533   535   537     5
  536   535   537     5
  529   537   535     5
  529   537   538     5
  535   537   538     5
  526   539   540     5
  526   539   541     5
  526   539   543     5
  540   539   541     5
  540   539   543     5
  541   539   543     5
  539   541   542     5
  523   543   539     5
  523   543   544     5
  523   543   545     5
  539   543   544     5
  539   543   545     5
  544   543   545     5
  543   545   546     5
  545   546   547     5
  545   546   548     5
  545   546   549     5
  547   546   548     5
  547   546   549     5
  548   546   549     5
  546   549   550     5
  549   550   551     5
  549   550   552     5
  549   550   553     5
  551   550   552     5
  551   550   553     5
  552   550   553     5
  550   553   554     5
  550   553   555     5
  550   553   574     5
  554   553   555     5
  554   553   574     5
  555   553   574     5
  553   555   556     5
  555   556   557     5
  555   556   558     5
  555   556   570     5
  557   556   558     5
  557   556   570     5
  558   556   570     5
  556   558   559     5
  556   558   563     5
  559   558   563     5
  558   559   560     5
  558   559   561     5
  560   559   561     5
  559   561   562     5
  559   561   566     5
  562   561   566     5
  558   563   564     5
  558   563   565     5
  564   563   565     5
  563   565   566     5
  561   566   565     5
  561   566   567     5
  565   566   567     5
  566   567   568     5
  566   567   569     5
  568   567   569     5
  556   570   571     5
  556   570   572     5
  556   570   574     5
  571   570   572     5
  571   570   574     5
  572   570   574     5
  570   572   573     5
  553   574   570     5
  553   574   575     5
  553   574   576     5
  570   574   575     5
  570   574   576     5
  575   574   576     5
  574   576   577     5
  576   577   578     5
  576   577   579     5
  576   577   580     5
  578   577   579     5
  578   577   580     5
  579   577   580     5
  577   580   581     5
  580   581   582     5
  580   581   583     5
  580   581   584     5
  582   581   583     5
  582   581   584     5
  583   581   584     5
  581   584   585     5
  581   584   586     5
  581   584   605     5
  585   584   586     5
  585   584   605     5
  586   584   605     5
  584   586   587     5
  586   587   588     5
  586   587   589     5
  586   587   601     5
  588   587   589     5
  588   587   601     5
  589   587   601     5
  587   589   590     5
  587   589   594     5
  590   589   594     5
  589   590   591     5
  589   590   592     5
  591   590   592     5
  590   592   593     5
  590   592   597     5
  593   592   597     5
  589   594   595     5
  589   594   596     5
  595   594   596     5
  594   596   597     5
  592   597   596     5
  592   597   598     5
  596   597   598     5
  597   598   599     5
  597   598   600     5
  599   598   600     5
  587   601   602     5
  587   601   603     5
  587   601   605     5
  602   601   603     5
  602   601   605     5
  603   601   605     5
  601   603   604     5
  584   605   601     5
  584   605   606     5
  584   605   607     5
  601   605   606     5
  601   605   607     5
  606   605   607     5
  605   607   608     5
  607   608   609     5
  607   608   610     5
  607   608   611     5
  609   608   610     5
  609   608   611     5
  610   608   611     5
  608   611   612     5
  611   612   613     5
  611   612   614     5
  611   612   615     5
  613   612   614     5
  613   612   615     5
  614   612   615     5
  612   615   616     5
  612   615   617     5
  612   615   638     5
  616   615   617     5
  616   615   638     5
  617   615   638     5
  615   617   618     5
  617   618   619     5
  617   618   620     5
  617   618   634     5
  619   618   620     5
  619   618   634     5
  620   618   634     5
  618   620   623     5
  618   620   629     5
  623   620   629     5
  622   621   629     5
  622   621   630     5
  629   621   630     5
  621   622   623     5
  620   623   622     5
  620   623   624     5
  622   623   624     5
  626   625   630     5
  625   626   627     5
  625   626   628     5
  627   626   628     5
  626   628   629     5
  620   629   621     5
  620   629   628     5
  621   629   628     5
  621   630   625     5
  621   630   631     5
  625   630   631     5
  630   631   632     5
  630   631   633     5
  632   631   633     5
  618   634   635     5
  618   634   636     5
  618   634   638     5
  635   634   636     5
  635   634   638     5
  636   634   638     5
  634   636   637     5
  615   638   634     5
  615   638   639     5
  615   638   640     5
  634   638   639     5
  634   638   640     5
  639   638   640     5
  638   640   641     5
  640   641   642     5
  640   641   643     5
  640   641   644     5
  642   641   643     5
  642   641   644     5
  643   641   644     5
  641   644   645     5
  644   645   646     5
  644   645   647     5
  644   645   648     5
  646   645   647     5
  646   645   648     5
  647   645   648     5
  645   648   649     5
  645   648   650     5
  645   648   668     5
  649   648   650     5
  649   648   668     5
  650   648   668     5
  648   650   651     5
  650   651   652     5
  650   651   653     5
  650   651   664     5
  652   651   653     5
  652   651   664     5
  653   651   664     5
  651   653   654     5
  651   653   656     5
  654   653   656     5
  653   654   655     5
  653   654   662     5
  655   654   662     5
  653   656   657     5
  653   656   658     5
  657   656   658     5
  656   658   659     5
  656   658   660     5
  659   658   660     5
  658   660   661     5
  658   660   662     5
  661   660   662     5
  654   662   660     5
  654   662   663     5
  660   662   663     5
  651   664   665     5
  651   664   666     5
  651   664   668     5
  665   664   666     5
  665   664   668     5
  666   664   668     5
  664   666   667     5
  648   668   664     5
  648   668   669     5
  648   668   670     5
  664   668   669     5
  664   668   670     5
  669   668   670     5
  668   670   671     5
  670   671   672     5
  670   671   673     5
  670   671   674     5
  672   671   673     5
  672   671   674     5
  673   671   674     5
  671   674   675     5
  674   675   676     5
  674   675   677     5
  674   675   678     5
  676   675   677     5
  676   675   678     5
  677   675   678     5
  675   678   679     5
  675   678   680     5
  675   678   698     5
  679   678   680     5
  679   678   698     5
  680   678   698     5
  678   680   681     5
  680   681   682     5
  680   681   683     5
  680   681   694     5
  682   681   683     5
  682   681   694     5
  683   681   694     5
  681   683   684     5
  681   683   686     5
  684   683   686     5
  683   684   685     5
  683   684   692     5
  685   684   692     5
  683   686   687     5
  683   686   688     5
  687   686   688     5
  686   688   689     5
  686   688   690     5
  689   688   690     5
  688   690   691     5
  688   690   692     5
  691   690   692     5
  684   692   690     5
  684   692   693     5
  690   692   693     5
  681   694   695     5
  681   694   696     5
  681   694   698     5
  695   694   696     5
  695   694   698     5
  696   694   698     5
  694   696   697     5
  678   698   694     5
  678   698   699     5
  678   698   700     5
  694   698   699     5
  694   698   700     5
  699   698   700     5
  698   700   701     5
  700   701   702     5
  700   701   703     5
  700   701   704     5
  702   701   703     5
  702   701   704     5
  703   701   704     5
  701   704   705     5
  704   705   706     5
  704   705   707     5
  704   705   708     5
  706   705   707     5
  706   705   708     5
  707   705   708     5
  705   708   709     5
  705   708   710     5
  705   708   732     5
  709   708   710     5
  709   708   732     5
  710   708   732     5
  708   710   711     5
  710   711   712     5
  710   711   713     5
  710   711   728     5
  712   711   713     5
  712   711   728     5
  713   711   728     5
  711   713   714     5
  711   713   726     5
  714   713   726     5
  713   714   718     5
  713   714   724     5
  718   714   724     5
  716   715   717     5
  716   715   719     5
  717   715   719     5
  714   718   719     5
  715   719   718     5
  715   719   720     5
  718   719   720     5
  719   720   721     5
  719   720   722     5
  721   720   722     5
  720   722   723     5
  720   722   724     5
  723   722   724     5
  714   724   722     5
  714   724   725     5
  722   724   725     5
  724   725   726     5
  713   726   725     5
  713   726   727     5
  725   726   727     5
  711   728   729     5
  711   728   730     5
  711   728   732     5
  729   728   730     5
  729   728   732     5
  730   728   732     5
  728   730   731     5
  708   732   728     5
  708   732   733     5
  708   732   734     5
  728   732   733     5
  728   732   734     5
  733   732   734     5
  732   734   735     5
  734   735   736     5
  734   735   737     5
  734   735   738     5
  736   735   737     5
  736   735   738     5
  737   735   738     5
  735   738   739     5
  738   739   740     5
  738   739   741     5
  738   739   742     5
  740   739   741     5
  740   739   742     5
  741   739   742     5
  739   742   743     5
  739   742   744     5
  739   742   763     5
  743   742   744     5
  743   742   763     5
  744   742   763     5
  742   744   745     5
  744   745   746     5
  744   745   747     5
  744   745   759     5
  746   745   747     5
  746   745   759     5
  747   745   759     5
  745   747   748     5
  745   747   752     5
  748   747   752     5
  747   748   749     5
  747   748   750     5
  749   748   750     5
  748   750   751     5
  748   750   755     5
  751   750   755     5
  747   752   753     5
  747   752   754     5
  753   752   754     5
  752   754   755     5
  750   755   754     5
  750   755   756     5
  754   755   756     5
  755   756   757     5
  755   756   758     5
  757   756   758     5
  745   759   760     5
  745   759   761     5
  745   759   763     5
  760   759   761     5
  760   759   763     5
  761   759   763     5
  759   761   762     5
  742   763   759     5
  742   763   764     5
  742   763   765     5
  759   763   764     5
  759   763   765     5
  764   763   765     5
  763   765   766     5
  765   766   767     5
  765   766   768     5
  765   766   769     5
  767   766   768     5
  767   766   769     5
  768   766   769     5
  766   769   770     5
  769   770   771     5
  769   770   772     5
  769   770   773     5
  771   770   772     5
  771   770   773     5
  772   770   773     5
  770   773   774     5
  770   773   775     5
  770   773   796     5
  774   773   775     5
  774   773   796     5
  775   773   796     5
  773   775   776     5
  775   776   777     5
  775   776   778     5
  775   776   792     5
  777   776   778     5
  777   776   792     5
  778   776   792     5
  776   778   781     5
  776   778   787     5
  781   778   787     5
  780   779   787     5
  780   779   788     5
  787   779   788     5
  779   780   781     5
  778   781   780     5
  778   781   782     5
  780   781   782     5
  784   783   788     5
  783   784   785     5
  783   784   786     5
  785   784   786     5
  784   786   787     5
  778   787   779     5
  778   787   786     5
  779   787   786     5
  779   788   783     5
  779   788   789     5
  783   788   789     5
  788   789   790     5
  788   789   791     5
  790   789   791     5
  776   792   793     5
  776   792   794     5
  776   792   796     5
  793   792   794     5
  793   792   796     5
  794   792   796     5
  792   794   795     5
  773   796   792     5
  773   796   797     5
  773   796   798     5
  792   796   797     5
  792   796   798     5
  797   796   798     5
  796   798   799     5
  798   799   800     5
  798   799   801     5
  798   799   802     5
  800   799   801     5
  800   799   802     5
  801   799   802     5
  799   802   803     5
  802   803   804     5
  802   803   805     5
  802   803   806     5
  804   803   805     5
  804   803   806     5
  805   803   806     5
  803   806   807     5
  803   806   808     5
  803   806   827     5
  807   806   808     5
  807   806   827     5
  808   806   827     5
  806   808   809     5
  808   809   810     5
  808   809   811     5
  808   809   823     5
  810   809   811     5
  810   809   823     5
  811   809   823     5
  809   811   812     5
  809   811   816     5
  812   811   816     5
  811   812   813     5
  811   812   814     5
  813   812   814     5
  812   814   815     5
  812   814   819     5
  815   814   819     5
  811   816   817     5
  811   816   818     5
  817   816   818     5
  816   818   819     5
  814   819   818     5
  814   819   820     5
  818   819   820     5
  819   820   821     5
  819   820   822     5
  821   820   822     5
  809   823   824     5
  809   823   825     5
  809   823   827     5
  824   823   825     5
  824   823   827     5
  825   823   827     5
  823   825   826     5
  806   827   823     5
  806   827   828     5
  806   827   829     5
  823   827   828     5
  823   827   829     5
  828   827   829     5
  827   829   830     5
  829   830   831     5
  829   830   832     5
  829   830   833     5
  831   830   832     5
  831   830   833     5
  832   830   833     5
  830   833   834     5
  833   834   835     5
  833   834   836     5
  833   834   837     5
  835   834   836     5
  835   834   837     5
  836   834   837     5
  834   837   838     5
  834   837   839     5
  834   837   857     5
  838   837   839     5
  838   837   857     5
  839   837   857     5
  837   839   840     5
  839   840   841     5
  839   840   842     5
  839   840   853     5
  841   840   842     5
  841   840   853     5
  842   840   853     5
  840   842   843     5
  840   842   845     5
  843   842   845     5
  842   843   844     5
  842   843   851     5
  844   843   851     5
  842   845   846     5
  842   845   847     5
  846   845   847     5
  845   847   848     5
  845   847   849     5
  848   847   849     5
  847   849   850     5
  847   849   851     5
  850   849   851     5
  843   851   849     5
  843   851   852     5
  849   851   852     5
  840   853   854     5
  840   853   855     5
  840   853   857     5
  854   853   855     5
  854   853   857     5
  855   853   857     5
  853   855   856     5
  837   857   853     5
  837   857   858     5
  837   857   859     5
  853   857   858     5
  853   857   859     5
  858   857   859     5
  857   859   860     5
  859   860   861     5
  859   860   862     5
  859   860   863     5
  861   860   862     5
  861   860   863     5
  862   860   863     5
  860   863   864     5
  863   864   865     5
  863   864   866     5
  863   864   867     5
  865   864   866     5
  865   864   867     5
  866   864   867     5
  864   867   868     5
  864   867   869     5
  864   867   888     5
  868   867   869     5
  868   867   888     5
  869   867   888     5
  867   869   870     5
  869   870   871     5
  869   870   872     5
  869   870   884     5
  871   870   872     5
  871   870   884     5
  872   870   884     5
  870   872   873     5
  870   872   877     5
  873   872   877     5
  872   873   874     5
  872   873   875     5
  874   873   875     5
  873   875   876     5
  873   875   880     5
  876   875   880     5
  872   877   878     5
  872   877   879     5
  878   877   879     5
  877   879   880     5
  875   880   879     5
  875   880   881     5
  879   880   881     5
  880   881   882     5
  880   881   883     5
  882   881   883     5
  870   884   885     5
  870   884   886     5
  870   884   888     5
  885   884   886     5
  885   884   888     5
  886   884   888     5
  884   886   887     5
  867   888   884     5
  867   888   889     5
  867   888   890     5
  884   888   889     5
  884   888   890     5
  889   888   890     5
  888   890   891     5
  890   891   892     5
  890   891   893     5
  890   891   894     5
  892   891   893     5
  892   891   894     5
  893   891   894     5
  891   894   895     5
  894   895   896     5
  894   895   897     5
  894   895   898     5
  896   895   897     5
  896   895   898     5
  897   895   898     5
  895   898   899     5
  895   898   900     5
  895   898   919     5
  899   898   900     5
  899   898   919     5
  900   898   919     5
  898   900   901     5
  900   901   902     5
  900   901   903     5
  900   901   915     5
  902   901   903     5
  902   901   915     5
  903   901   915     5
  901   903   904     5
  901   903   908     5
  904   903   908     5
  903   904   905     5
  903   904   906     5
  905   904   906     5
  904   906   907     5
  904   906   911     5
  907   906   911     5
  903   908   909     5
  903   908   910     5
  909   908   910     5
  908   910   911     5
  906   911   910     5
  906   911   912     5
  910   911   912     5
  911   912   913     5
  911   912   914     5
  913   912   914     5
  901   915   916     5
  901   915   917     5
  901   915   919     5
  916   915   917     5
  916   915   919     5
  917   915   919     5
  915   917   918     5
  898   919   915     5
  898   919   920     5
  898   919   921     5
  915   919   920     5
  915   919   921     5
  920   919   921     5
  919   921   922     5
  921   922   923     5
  921   922   924     5
  921   922   925     5
  923   922   924     5
  923   922   925     5
  924   922   925     5
  922   925   926     5
  925   926   927     5
  925   926   928     5
  925   926   929     5
  927   926   928     5
  927   926   929     5
  928   926   929     5
  926   929   930     5
  926   929   931     5
  926   929   953     5
  930   929   931     5
  930   929   953     5
  931   929   953     5
  929   931   932     5
  931   932   933     5
  931   932   934     5
  931   932   949     5
  933   932   934     5
  933   932   949     5
  934   932   949     5
  932   934   935     5
  932   934   947     5
  935   934   947     5
  934   935   939     5
  934   935   945     5
  939   935   945     5
  937   936   938     5
  937   936   940     5
  938   936   940     5
  935   939   940     5
  936   940   939     5
  936   940   941     5
  939   940   941     5
  940   941   942     5
  940   941   943     5
  942   941   943     5
  941   943   944     5
  941   943   945     5
  944   943   945     5
  935   945   943     5
  935   945   946     5
  943   945   946     5
  945   946   947     5
  934   947   946     5
  934   947   948     5
  946   947   948     5
  932   949   950     5
  932   949   951     5
  932   949   953     5
  950   949   951     5
  950   949   953     5
  951   949   953     5
  949   951   952     5
  929   953   949     5
  929   953   954     5
  929   953   955     5
  949   953   954     5
  949   953   955     5
  954   953   955     5
  953   955   956     5
  955   956   957     5
  955   956   958     5
  955   956   959     5
  957   956   958     5
  957   956   959     5
  958   956   959     5
  956   959   960     5
  959   960   961     5
  959   960   962     5
  959   960   963     5
  961   960   962     5
  961   960   963     5
  962   960   963     5
  960   963   964     5
  960   963   965     5
  960   963   987     5
  964   963   965     5
  964   963   987     5
  965   963   987     5
  963   965   966     5
  965   966   967     5
  965   966   968     5
  965   966   983     5
  967   966   968     5
  967   966   983     5
  968   966   983     5
  966   968   969     5
  966   968   981     5
  969   968   981     5
  968   969   973     5
  968   969   979     5
  973   969   979     5
  971   970   972     5
  971   970   974     5
  972   970   974     5
  969   973   974     5
  970   974   973     5
  970   974   975     5
  973   974   975     5
  974   975   976     5
  974   975   977     5
  976   975   977     5
  975   977   978     5
  975   977   979     5
  978   977   979     5
  969   979   977     5
  969   979   980     5
  977   979   980     5
  979   980   981     5
  968   981   980     5
  968   981   982     5
  980   981   982     5
  966   983   984     5
  966   983   985     5
  966   983   987     5
  984   983   985     5
  984   983   987     5
  985   983   987     5
  983   985   986     5
  963   987   983     5
  963   987   988     5
  963   987   989     5
  983   987   988     5
  983   987   989     5
  988   987   989     5
  987   989   990     5
  989   990   991     5
  989   990   992     5
  989   990   993     5
  991   990   992     5
  991   990   993     5
  992   990   993     5
  990   993   994     5
  993   994   995     5
  993   994   996     5
  993   994   997     5
  995   994   996     5
  995   994   997     5
  996   994   997     5
  994   997   998     5
  994   997   999     5
  994   997  1020     5
  998   997   999     5
  998   997  1020     5
  999   997  1020     5
  997   999  1000     5
  999  1000  1001     5
  999  1000  1002     5
  999  1000  1016     5
 1001  1000  1002     5
 1001  1000  1016     5
 1002  1000  1016     5
 1000  1002  1005     5
 1000  1002  1011     5
 1005  1002  1011     5
 1004  1003  1011     5
 1004  1003  1012     5
 1011  1003  1012     5
 1003  1004  1005     5
 1002  1005  1004     5
 1002  1005  1006     5
 1004  1005  1006     5
 1008  1007  1012     5
 1007  1008  1009     5
 1007  1008  1010     5
 1009  1008  1010     5
 1008  1010  1011     5
 1002  1011  1003     5
 1002  1011  1010     5
 1003  1011  1010     5
 1003  1012  1007     5
 1003  1012  1013     5
 1007  1012  1013     5
 1012  1013  1014     5
 1012  1013  1015     5
 1014  1013  1015     5
 1000  1016  1017     5
 1000  1016  1018     5
 1000  1016  1020     5
 1017  1016  1018     5
 1017  1016  1020     5
 1018  1016  1020     5
 1016  1018  1019     5
  997  1020  1016     5
  997  1020  1021     5
  997  1020  1022     5
 1016  1020  1021     5
 1016  1020  1022     5
 1021  1020  1022     5
 1020  1022  1023     5
 1022  1023  1024     5
 1022  1023  1025     5
 1022  1023  1026     5
 1024  1023  1025     5
 1024  1023  1026     5
 1025  1023  1026     5
 1023  1026  1027     5
 1026  1027  1028     5
 1026  1027  1029     5
 1026  1027  1030     5
 1028  1027  1029     5
 1028  1027  1030     5
 1029  1027  1030     5
 1027  1030  1031     5
 1027  1030  1032     5
 1027  1030  1054     5
 1031  1030  1032     5
 1031  1030  1054     5
 1032  1030  1054     5
 1030  1032  1033     5
 1032  1033  1034     5
 1032  1033  1035     5
 1032  1033  1050     5
 1034  1033  1035     5
 1034  1033  1050     5
 1035  1033  1050     5
 1033  1035  1036     5
 1033  1035  1048     5
 1036  1035  1048     5
 1035  1036  1040     5
 1035  1036  1046     5
 1040  1036  1046     5
 1038  1037  1039     5
 1038  1037  1041     5
 1039  1037  1041     5
 1036  1040  1041     5
 1037  1041  1040     5
 1037  1041  1042     5
 1040  1041  1042     5
 1041  1042  1043     5
 1041  1042  1044     5
 1043  1042  1044     5
 1042  1044  1045     5
 1042  1044  1046     5
 1045  1044  1046     5
 1036  1046  1044     5
 1036  1046  1047     5
 1044  1046  1047     5
 1046  1047  1048     5
 1035  1048  1047     5
 1035  1048  1049     5
 1047  1048  1049     5
 1033  1050  1051     5
 1033  1050  1052     5
 1033  1050  1054     5
 1051  1050  1052     5
 1051  1050  1054     5
 1052  1050  1054     5
 1050  1052  1053     5
 1030  1054  1050     5
 1030  1054  1055     5
 1030  1054  1056     5
 1050  1054  1055     5
 1050  1054  1056     5
 1055  1054  1056     5
 1054  1056  1057     5
 1056  1057  1058     5
 1056  1057  1059     5
 1056  1057  1060     5
 1058  1057  1059     5
 1058  1057  1060     5
 1059  1057  1060     5
 1057  1060  1061     5
 1060  1061  1062     5
 1060  1061  1063     5
 1060  1061  1064     5
 1062  1061  1063     5
 1062  1061  1064     5
 1063  1061  1064     5
 1061  1064  1065     5
 1061  1064  1066     5
 1061  1064  1088     5
 1065  1064  1066     5
 1065  1064  1088     5
 1066  1064  1088     5
 1064  1066  1067     5
 1066  1067  1068     5
 1066  1067  1069     5
 1066  1067  1084     5
 1068  1067  1069     5
 1068  1067  1084     5
 1069  1067  1084     5
 1067  1069  1070     5
 1067  1069  1082     5
 1070  1069  1082     5
 1069  1070  1074     5
 1069  1070  1080     5
 1074  1070  1080     5
 1072  1071  1073     5
 1072  1071  1075     5
 1073  1071  1075     5
 1070  1074  1075     5
 1071  1075  1074     5
 1071  1075  1076     5
 1074  1075  1076     5
 1075  1076  1077     5
 1075  1076  1078     5
 1077  1076  1078     5
 1076  1078  1079     5
 1076  1078  1080     5
 1079  1078  1080     5
 1070  1080  1078     5
 1070  1080  1081     5
 1078  1080  1081     5
 1080  1081  1082     5
 1069  1082  1081     5
 1069  1082  1083     5
 1081  1082  1083     5
 1067  1084  1085     5
 1067  1084  1086     5
 1067  1084  1088     5
 1085  1084  1086     5
 1085  1084  1088     5
 1086  1084  1088     5
 1084  1086  1087     5
 1064  1088  1084     5
 1064  1088  1089     5
 1064  1088  1090     5
 1084  1088  1089     5
 1084  1088  1090     5
 1089  1088  1090     5
 1088  1090  1091     5
 1090  1091  1092     5
 1090  1091  1093     5
 1090  1091  1094     5
 1092  1091  1093     5
 1092  1091  1094     5
 1093  1091  1094     5
 1091  1094  1095     5
 1094  1095  1096     5
 1094  1095  1097     5
 1094  1095  1098     5
 1096  1095  1097     5
 1096  1095  1098     5
 1097  1095  1098     5
 1095  1098  1099     5
 1095  1098  1100     5
 1095  1098  1119     5
 1099  1098  1100     5
 1099  1098  1119     5
 1100  1098  1119     5
 1098  1100  1101     5
 1100  1101  1102     5
 1100  1101  1103     5
 1100  1101  1115     5
 1102  1101  1103     5
 1102  1101  1115     5
 1103  1101  1115     5
 1101  1103  1104     5
 1101  1103  1108     5
 1104  1103  1108     5
 1103  1104  1105     5
 1103  1104  1106     5
 1105  1104  1106     5
 1104  1106  1107     5
 1104  1106  1111     5
 1107  1106  1111     5
 1103  1108  1109     5
 1103  1108  1110     5
 1109  1108  1110     5
 1108  1110  1111     5
 1106  1111  1110     5
 1106  1111  1112     5
 1110  1111  1112     5
 1111  1112  1113     5
 1111  1112  1114     5
 1113  1112  1114     5
 1101  1115  1116     5
 1101  1115  1117     5
 1101  1115  1119     5
 1116  1115  1117     5
 1116  1115  1119     5
 1117  1115  1119     5
 1115  1117  1118     5
 1098  1119  1115     5
 1098  1119  1120     5
 1098  1119  1121     5
 1115  1119  1120     5
 1115  1119  1121     5
 1120  1119  1121     5
 1119  1121  1122     5
 1121  1122  1123     5
 1121  1122  1124     5
 1121  1122  1125     5
 1123  1122  1124     5
 1123  1122  1125     5
 1124  1122  1125     5
 1122  1125  1126     5
 1125  1126  1127     5
 1125  1126  1128     5
 1125  1126  1129     5
 1127  1126  1128     5
 1127  1126  1129     5
 1128  1126  1129     5
 1126  1129  1130     5
 1126  1129  1131     5
 1126  1129  1149     5
 1130  1129  1131     5
 1130  1129  1149     5
 1131  1129  1149     5
 1129  1131  1132     5
 1131  1132  1133     5
 1131  1132  1134     5
 1131  1132  1145     5
 1133  1132  1134     5
 1133  1132  1145     5
 1134  1132  1145     5
 1132  1134  1135     5
 1132  1134  1137     5
 1135  1134  1137     5
 1134  1135  1136     5
 1134  1135  1143     5
 1136  1135  1143     5
 1134  1137  1138     5
 1134  1137  1139     5
 1138  1137  1139     5
 1137  1139  1140     5
 1137  1139  1141     5
 1140  1139  1141     5
 1139  1141  1142     5
 1139  1141  1143     5
 1142  1141  1143     5
 1135  1143  1141     5
 1135  1143  1144     5
 1141  1143  1144     5
 1132  1145  1146     5
 1132  1145  1147     5
 1132  1145  1149     5
 1146  1145  1147     5
 1146  1145  1149     5
 1147  1145  1149     5
 1145  1147  1148     5
 1129  1149  1145     5
 1129  1149  1150     5
 1129  1149  1151     5
 1145  1149  1150     5
 1145  1149  1151     5
 1150  1149  1151     5
 1149  1151  1152     5
 1151  1152  1153     5
 1151  1152  1154     5
 1151  1152  1155     5
 1153  1152  1154     5
 1153  1152  1155     5
 1154  1152  1155     5
 1152  1155  1156     5
 1155  1156  1157     5
 1155  1156  1158     5
 1155  1156  1159     5
 1157  1156  1158     5
 1157  1156  1159     5
 1158  1156  1159     5
 1156  1159  1160     5
 1156  1159  1161     5
 1156  1159  1183     5
 1160  1159  1161     5
 1160  1159  1183     5
 1161  1159  1183     5
 1159  1161  1162     5
 1161  1162  1163     5
 1161  1162  1164     5
 1161  1162  1179     5
 1163  1162  1164     5
 1163  1162  1179     5
 1164  1162  1179     5
 1162  1164  1165     5
 1162  1164  1177     5
 1165  1164  1177     5
 1164  1165  1169     5
 1164  1165  1175     5
 1169  1165  1175     5
 1167  1166  1168     5
 1167  1166  1170     5
 1168  1166  1170     5
 1165  1169  1170     5
 1166  1170  1169     5
 1166  1170  1171     5
 1169  1170  1171     5
 1170  1171  1172     5
 1170  1171  1173     5
 1172  1171  1173     5
 1171  1173  1174     5
 1171  1173  1175     5
 1174  1173  1175     5
 1165  1175  1173     5
 1165  1175  1176     5
 1173  1175  1176     5
 1175  1176  1177     5
 1164  1177  1176     5
 1164  1177  1178     5
 1176  1177  1178     5
 1162  1179  1180     5
 1162  1179  1181     5
 1162  1179  1183     5
 1180  1179  1181     5
 1180  1179  1183     5
 1181  1179  1183     5
 1179  1181  1182     5
 1159  1183  1179     5
 1159  1183  1184     5
 1159  1183  1185     5
 1179  1183  1184     5
 1179  1183  1185     5
 1184  1183  1185     5
 1183  1185  1186     5
 1185  1186  1187     5
 1185  1186  1188     5
 1185  1186  1189     5
 1187  1186  1188     5
 1187  1186  1189     5
 1188  1186  1189     5
 1186  1189  1190     5
 1189  1190  1191     5
 1189  1190  1192     5
 1189  1190  1193     5
 1191  1190  1192     5
 1191  1190  1193     5
 1192  1190  1193     5
 1190  1193  1194     5
 1190  1193  1195     5
 1190  1193  1216     5
 1194  1193  1195     5
 1194  1193  1216     5
 1195  1193  1216     5
 1193  1195  1196     5
 1195  1196  1197     5
 1195  1196  1198     5
 1195  1196  1212     5
 1197  1196  1198     5
 1197  1196  1212     5
 1198  1196  1212     5
 1196  1198  1201     5
 1196  1198  1207     5
 1201  1198  1207     5
 1200  1199  1207     5
 1200  1199  1208     5
 1207  1199  1208     5
 1199  1200  1201     5
 1198  1201  1200     5
 1198  1201  1202     5
 1200  1201  1202     5
 1204  1203  1208     5
 1203  1204  1205     5
 1203  1204  1206     5
 1205  1204  1206     5
 1204  1206  1207     5
 1198  1207  1199     5
 1198  1207  1206     5
 1199  1207  1206     5
 1199  1208  1203     5
 1199  1208  1209     5
 1203  1208  1209     5
 1208  1209  1210     5
 1208  1209  1211     5
 1210  1209  1211     5
 1196  1212  1213     5
 1196  1212  1214     5
 1196  1212  1216     5
 1213  1212  1214     5
 1213  1212  1216     5
 1214  1212  1216     5
 1212  1214  1215     5
 1193  1216  1212     5
 1193  1216  1217     5
 1193  1216  1218     5
 1212  1216  1217     5
 1212  1216  1218     5
 1217  1216  1218     5
 1216  1218  1219     5
 1218  1219  1220     5
 1218  1219  1221     5
 1218  1219  1222     5
 1220  1219  1221     5
 1220  1219  1222     5
 1221  1219  1222     5
 1219  1222  1223     5
 1222  1223  1224     5
 1222  1223  1225     5
 1222  1223  1226     5
 1224  1223  1225     5
 1224  1223  1226     5
 1225  1223  1226     5
 1223  1226  1227     5
 1223  1226  1228     5
 1223  1226  1250     5
 1227  1226  1228     5
 1227  1226  1250     5
 1228  1226  1250     5
 1226  1228  1229     5
 1228  1229  1230     5
 1228  1229  1231     5
 1228  1229  1246     5
 1230  1229  1231     5
 1230  1229  1246     5
 1231  1229  1246     5
 1229  1231  1232     5
 1229  1231  1244     5
 1232  1231  1244     5
 1231  1232  1236     5
 1231  1232  1242     5
 1236  1232  1242     5
 1234  1233  1235     5
 1234  1233  1237     5
 1235  1233  1237     5
 1232  1236  1237     5
 1233  1237  1236     5
 1233  1237  1238     5
 1236  1237  1238     5
 1237  1238  1239     5
 1237  1238  1240     5
 1239  1238  1240     5
 1238  1240  1241     5
 1238  1240  1242     5
 1241  1240  1242     5
 1232  1242  1240     5
 1232  1242  1243     5
 1240  1242  1243     5
 1242  1243  1244     5
 1231  1244  1243     5
 1231  1244  1245     5
 1243  1244  1245     5
 1229  1246  1247     5
 1229  1246  1248     5
 1229  1246  1250     5
 1247  1246  1248     5
 1247  1246  1250     5
 1248  1246  1250     5
 1246  1248  1249     5
 1226  1250  1246     5
 1226  1250  1251     5
 1226  1250  1252     5
 1246  1250  1251     5
 1246  1250  1252     5
 1251  1250  1252     5
 1250  1252  1253     5
 1252  1253  1254     5
 1252  1253  1255     5
 1252  1253  1256     5
 1254  1253  1255     5
 1254  1253  1256     5
 1255  1253  1256     5
 1253  1256  1257     5
 1256  1257  1258     5
 1256  1257  1259     5
 1256  1257  1260     5
 1258  1257  1259     5
 1258  1257  1260     5
 1259  1257  1260     5
 1257  1260  1261     5
 1257  1260  1262     5
 1257  1260  1283     5
 1261  1260  1262     5
 1261  1260  1283     5
 1262  1260  1283     5
 1260  1262  1263     5
 1262  1263  1264     5
 1262  1263  1265     5
 1262  1263  1279     5
 1264  1263  1265     5
 1264  1263  1279     5
 1265  1263  1279     5
 1263  1265  1268     5
 1263  1265  1274     5
 1268  1265  1274     5
 1267  1266  1274     5
 1267  1266  1275     5
 1274  1266  1275     5
 1266  1267  1268     5
 1265  1268  1267     5
 1265  1268  1269     5
 1267  1268  1269     5
 1271  1270  1275     5
 1270  1271  1272     5
 1270  1271  1273     5
 1272  1271  1273     5
 1271  1273  1274     5
 1265  1274  1266     5
 1265  1274  1273     5
 1266  1274  1273     5
 1266  1275  1270     5
 1266  1275  1276     5
 1270  1275  1276     5
 1275  1276  1277     5
 1275  1276  1278     5
 1277  1276  1278     5
 1263  1279  1280     5
 1263  1279  1281     5
 1263  1279  1283     5
 1280  1279  1281     5
 1280  1279  1283     5
 1281  1279  1283     5
 1279  1281  1282     5
 1260  1283  1279     5
 1260  1283  1284     5
 1260  1283  1285     5
 1279  1283  1284     5
 1279  1283  1285     5
 1284  1283  1285     5
 1283  1285  1286     5
 1285  1286  1287     5
 1285  1286  1288     5
 1285  1286  1289     5
 1287  1286  1288     5
 1287  1286  1289     5
 1288  1286  1289     5
 1286  1289  1290     5
 1289  1290  1291     5
 1289  1290  1292     5
 1289  1290  1293     5
 1291  1290  1292     5
 1291  1290  1293     5
 1292  1290  1293     5
 1290  1293  1294     5
 1290  1293  1295     5
 1290  1293  1316     5
 1294  1293  1295     5
 1294  1293  1316     5
 1295  1293  1316     5
 1293  1295  1296     5
 1295  1296  1297     5
 1295  1296  1298     5
 1295  1296  1312     5
 1297  1296  1298     5
 1297  1296  1312     5
 1298  1296  1312     5
 1296  1298  1301     5
 1296  1298  1307     5
 1301  1298  1307     5
 1300  1299  1307     5
 1300  1299  1308     5
 1307  1299  1308     5
 1299  1300  1301     5
 1298  1301  1300     5
 1298  1301  1302     5
 1300  1301  1302     5
 1304  1303  1308     5
 1303  1304  1305     5
 1303  1304  1306     5
 1305  1304  1306     5
 1304  1306  1307     5
 1298  1307  1299     5
 1298  1307  1306     5
 1299  1307  1306     5
 1299  1308  1303     5
 1299  1308  1309     5
 1303  1308  1309     5
 1308  1309  1310     5
 1308  1309  1311     5
 1310  1309  1311     5
 1296  1312  1313     5
 1296  1312  1314     5
 1296  1312  1316     5
 1313  1312  1314     5
 1313  1312  1316     5
 1314  1312  1316     5
 1312  1314  1315     5
 1293  1316  1312     5
 1293  1316  1317     5
 1293  1316  1318     5
 1312  1316  1317     5
 1312  1316  1318     5
 1317  1316  1318     5
 1316  1318  1319     5
 1318  1319  1320     5
 1318  1319  1321     5
 1318  1319  1322     5
 1320  1319  1321     5
 1320  1319  1322     5
 1321  1319  1322     5
 1319  1322  1323     5
 1322  1323  1324     5
 1322  1323  1325     5
 1322  1323  1326     5
 1324  1323  1325     5
 1324  1323  1326     5
 1325  1323  1326     5
 1323  1326  1327     5
 1323  1326  1328     5
 1323  1326  1349     5
 1327  1326  1328     5
 1327  1326  1349     5
 1328  1326  1349     5
 1326  1328  1329     5
 1328  1329  1330     5
 1328  1329  1331     5
 1328  1329  1345     5
 1330  1329  1331     5
 1330  1329  1345     5
 1331  1329  1345     5
 1329  1331  1334     5
 1329  1331  1340     5
 1334  1331  1340     5
 1333  1332  1340     5
 1333  1332  1341     5
 1340  1332  1341     5
 1332  1333  1334     5
 1331  1334  1333     5
 1331  1334  1335     5
 1333  1334  1335     5
 1337  1336  1341     5
 1336  1337  1338     5
 1336  1337  1339     5
 1338  1337  1339     5
 1337  1339  1340     5
 1331  1340  1332     5
 1331  1340  1339     5
 1332  1340  1339     5
 1332  1341  1336     5
 1332  1341  1342     5
 1336  1341  1342     5
 1341  1342  1343     5
 1341  1342  1344     5
 1343  1342  1344     5
 1329  1345  1346     5
 1329  1345  1347     5
 1329  1345  1349     5
 1346  1345  1347     5
 1346  1345  1349     5
 1347  1345  1349     5
 1345  1347  1348     5
 1326  1349  1345     5
 1326  1349  1350     5
 1326  1349  1351     5
 1345  1349  1350     5
 1345  1349  1351     5
 1350  1349  1351     5
 1349  1351  1352     5
 1351  1352  1353     5
 1351  1352  1354     5
 1351  1352  1355     5
 1353  1352  1354     5
 1353  1352  1355     5
 1354  1352  1355     5
 1352  1355  1356     5
 1355  1356  1357     5
 1355  1356  1358     5
 1355  1356  1359     5
 1357  1356  1358     5
 1357  1356  1359     5
 1358  1356  1359     5
 1356  1359  1360     5
 1356  1359  1361     5
 1356  1359  1379     5
 1360  1359  1361     5
 1360  1359  1379     5
 1361  1359  1379     5
 1359  1361  1362     5
 1361  1362  1363     5
 1361  1362  1364     5
 1361  1362  1375     5
 1363  1362  1364     5
 1363  1362  1375     5
 1364  1362  1375     5
 1362  1364  1365     5
 1362  1364  1367     5
 1365  1364  1367     5
 1364  1365  1366     5
 1364  1365  1373     5
 1366  1365  1373     5
 1364  1367  1368     5
 1364  1367  1369     5
 1368  1367  1369     5
 1367  1369  1370     5
 1367  1369  1371     5
 1370  1369  1371     5
 1369  1371  1372     5
 1369  1371  1373     5
 1372  1371  1373     5
 1365  1373  1371     5
 1365  1373  1374     5
 1371  1373  1374     5
 1362  1375  1376     5
 1362  1375  1377     5
 1362  1375  1379     5
 1376  1375  1377     5
 1376  1375  1379     5
 1377  1375  1379     5
 1375  1377  1378     5
 1359  1379  1375     5
 1359  1379  1380     5
 1359  1379  1381     5
 1375  1379  1380     5
 1375  1379  1381     5
 1380  1379  1381     5
 1379  1381  1382     5
 1381  1382  1383     5
 1381  1382  1384     5
 1381  1382  1385     5
 1383  1382  1384     5
 1383  1382  1385     5
 1384  1382  1385     5
 1382  1385  1386     5
 1385  1386  1387     5
 1385  1386  1388     5
 1385  1386  1389     5
 1387  1386  1388     5
 1387  1386  1389     5
 1388  1386  1389     5
 1386  1389  1390     5
 1386  1389  1391     5
 1386  1389  1412     5
 1390  1389  1391     5
 1390  1389  1412     5
 1391  1389  1412     5
 1389  1391  1392     5
 1391  1392  1393     5
 1391  1392  1394     5
 1391  1392  1408     5
 1393  1392  1394     5
 1393  1392  1408     5
 1394  1392  1408     5
 1392  1394  1397     5
 1392  1394  1403     5
 1397  1394  1403     5
 1396  1395  1403     5
 1396  1395  1404     5
 1403  1395  1404     5
 1395  1396  1397     5
 1394  1397  1396     5
 1394  1397  1398     5
 1396  1397  1398     5
 1400  1399  1404     5
 1399  1400  1401     5
 1399  1400  1402     5
 1401  1400  1402     5
 1400  1402  1403     5
 1394  1403  1395     5
 1394  1403  1402     5
 1395  1403  1402     5
 1395  1404  1399     5
 1395  1404  1405     5
 1399  1404  1405     5
 1404  1405  1406     5
 1404  1405  1407     5
 1406  1405  1407     5
 1392  1408  1409     5
 1392  1408  1410     5
 1392  1408  1412     5
 1409  1408  1410     5
 1409  1408  1412     5
 1410  1408  1412     5
 1408  1410  1411     5
 1389  1412  1408     5
 1389  1412  1413     5
 1389  1412  1414     5
 1408  1412  1413     5
 1408  1412  1414     5
 1413  1412  1414     5
 1412  1414  1415     5
 1414  1415  1416     5
 1414  1415  1417     5
 1414  1415  1418     5
 1416  1415  1417     5
 1416  1415  1418     5
 1417  1415  1418     5
 1415  1418  1419     5
 1418  1419  1420     5
 1418  1419  1421     5
 1418  1419  1422     5
 1420  1419  1421     5
 1420  1419  1422     5
 1421  1419  1422     5
 1419  1422  1423     5
 1419  1422  1424     5
 1419  1422  1443     5
 1423  1422  1424     5
 1423  1422  1443     5
 1424  1422  1443     5
 1422  1424  1425     5
 1424  1425  1426     5
 1424  1425  1427     5
 1424  1425  1439     5
 1426  1425  1427     5
 1426  1425  1439     5
 1427  1425  1439     5
 1425  1427  1428     5
 1425  1427  1432     5
 1428  1427  1432     5
 1427  1428  1429     5
 1427  1428  1430     5
 1429  1428  1430     5
 1428  1430  1431     5
 1428  1430  1435     5
 1431  1430  1435     5
 1427  1432  1433     5
 1427  1432  1434     5
 1433  1432  1434     5
 1432  1434  1435     5
 1430  1435  1434     5
 1430  1435  1436     5
 1434  1435  1436     5
 1435  1436  1437     5
 1435  1436  1438     5
 1437  1436  1438     5
 1425  1439  1440     5
 1425  1439  1441     5
 1425  1439  1443     5
 1440  1439  1441     5
 1440  1439  1443     5
 1441  1439  1443     5
 1439  1441  1442     5
 1422  1443  1439     5
 1422  1443  1444     5
 1422  1443  1445     5
 1439  1443  1444     5
 1439  1443  1445     5
 1444  1443  1445     5
 1443  1445  1446     5
 1445  1446  1447     5
 1445  1446  1448     5
 1445  1446  1449     5
 1447  1446  1448     5
 1447  1446  1449     5
 1448  1446  1449     5
 1446  1449  1450     5
 1449  1450  1451     5
 1449  1450  1452     5
 1449  1450  1453     5
 1451  1450  1452     5
 1451  1450  1453     5
 1452  1450  1453     5
 1450  1453  1454     5
 1450  1453  1455     5
 1450  1453  1474     5
 1454  1453  1455     5
 1454  1453  1474     5
 1455  1453  1474     5
 1453  1455  1456     5
 1455  1456  1457     5
 1455  1456  1458     5
 1455  1456  1470     5
 1457  1456  1458     5
 1457  1456  1470     5
 1458  1456  1470     5
 1456  1458  1459     5
 1456  1458  1463     5
 1459  1458  1463     5
 1458  1459  1460     5
 1458  1459  1461     5
 1460  1459  1461     5
 1459  1461  1462     5
 1459  1461  1466     5
 1462  1461  1466     5
 1458  1463  1464     5
 1458  1463  1465     5
 1464  1463  1465     5
 1463  1465  1466     5
 1461  1466  1465     5
 1461  1466  1467     5
 1465  1466  1467     5
 1466  1467  1468     5
 1466  1467  1469     5
 1468  1467  1469     5
 1456  1470  1471     5
 1456  1470  1472     5
 1456  1470  1474     5
 1471  1470  1472     5
 1471  1470  1474     5
 1472  1470  1474     5
 1470  1472  1473     5
 1453  1474  1470     5
 1453  1474  1475     5
 1453  1474  1476     5
 1470  1474  1475     5
 1470  1474  1476     5
 1475  1474  1476     5
 1474  1476  1477     5
 1476  1477  1478     5
 1476  1477  1479     5
 1476  1477  1480     5
 1478  1477  1479     5
 1478  1477  1480     5
 1479  1477  1480     5
 1477  1480  1481     5
 1480  1481  1482     5
 1480  1481  1483     5
 1480  1481  1484     5
 1482  1481  1483     5
 1482  1481  1484     5
 1483  1481  1484     5
 1481  1484  1485     5
 1481  1484  1486     5
 1481  1484  1505     5
 1485  1484  1486     5
 1485  1484  1505     5
 1486  1484  1505     5
 1484  1486  1487     5
 1486  1487  1488     5
 1486  1487  1489     5
 1486  1487  1501     5
 1488  1487  1489     5
 1488  1487  1501     5
 1489  1487  1501     5
 1487  1489  1490     5
 1487  1489  1494     5
 1490  1489  1494     5
 1489  1490  1491     5
 1489  1490  1492     5
 1491  1490  1492     5
 1490  1492  1493     5
 1490  1492  1497     5
 1493  1492  1497     5
 1489  1494  1495     5
 1489  1494  1496     5
 1495  1494  1496     5
 1494  1496  1497     5
 1492  1497  1496     5
 1492  1497  1498     5
 1496  1497  1498     5
 1497  1498  1499     5
 1497  1498  1500     5
 1499  1498  1500     5
 1487  1501  1502     5
 1487  1501  1503     5
 1487  1501  1505     5
 1502  1501  1503     5
 1502  1501  1505     5
 1503  1501  1505     5
 1501  1503  1504     5
 1484  1505  1501     5
 1484  1505  1506     5
 1484  1505  1507     5
 1501  1505  1506     5
 1501  1505  1507     5
 1506  1505  1507     5
 1505  1507  1508     5
 1507  1508  1509     5
 1507  1508  1510     5
 1507  1508  1511     5
 1509  1508  1510     5
 1509  1508  1511     5
 1510  1508  1511     5
 1508  1511  1512     5
 1511  1512  1513     5
 1511  1512  1514     5
 1511  1512  1515     5
 1513  1512  1514     5
 1513  1512  1515     5
 1514  1512  1515     5
 1512  1515  1516     5
 1512  1515  1517     5
 1512  1515  1539     5
 1516  1515  1517     5
 1516  1515  1539     5
 1517  1515  1539     5
 1515  1517  1518     5
 1517  1518  1519     5
 1517  1518  1520     5
 1517  1518  1535     5
 1519  1518  1520     5
 1519  1518  1535     5
 1520  1518  1535     5
 1518  1520  1521     5
 1518  1520  1533     5
 1521  1520  1533     5
 1520  1521  1525     5
 1520  1521  1531     5
 1525  1521  1531     5
 1523  1522  1524     5
 1523  1522  1526     5
 1524  1522  1526     5
 1521  1525  1526     5
 1522  1526  1525     5
 1522  1526  1527     5
 1525  1526  1527     5
 1526  1527  1528     5
 1526  1527  1529     5
 1528  1527  1529     5
 1527  1529  1530     5
 1527  1529  1531     5
 1530  1529  1531     5
 1521  1531  1529     5
 1521  1531  1532     5
 1529  1531  1532     5
 1531  1532  1533     5
 1520  1533  1532     5
 1520  1533  1534     5
 1532  1533  1534     5
 1518  1535  1536     5
 1518  1535  1537     5
 1518  1535  1539     5
 1536  1535  1537     5
 1536  1535  1539     5
 1537  1535  1539     5
 1535  1537  1538     5
 1515  1539  1535     5
 1515  1539  1540     5
 1515  1539  1541     5
 1535  1539  1540     5
 1535  1539  1541     5
 1540  1539  1541     5
 1539  1541  1542     5
 1541  1542  1543     5
 1541  1542  1544     5
 1541  1542  1545     5
 1543  1542  1544     5
 1543  1542  1545     5
 1544  1542  1545     5
 1542  1545  1546     5
 1545  1546  1547     5
 1545  1546  1548     5
 1545  1546  1549     5
 1547  1546  1548     5
 1547  1546  1549     5
 1548  1546  1549     5
 1546  1549  1550     5
 1546  1549  1551     5
 1546  1549  1569     5
 1550  1549  1551     5
 1550  1549  1569     5
 1551  1549  1569     5
 1549  1551  1552     5
 1551  1552  1553     5
 1551  1552  1554     5
 1551  1552  1565     5
 1553  1552  1554     5
 1553  1552  1565     5
 1554  1552  1565     5
 1552  1554  1555     5
 1552  1554  1557     5
 1555  1554  1557     5
 1554  1555  1556     5
 1554  1555  1563     5
 1556  1555  1563     5
 1554  1557  1558     5
 1554  1557  1559     5
 1558  1557  1559     5
 1557  1559  1560     5
 1557  1559  1561     5
 1560  1559  1561     5
 1559  1561  1562     5
 1559  1561  1563     5
 1562  1561  1563     5
 1555  1563  1561     5
 1555  1563  1564     5
 1561  1563  1564     5
 1552  1565  1566     5
 1552  1565  1567     5
 1552  1565  1569     5
 1566  1565  1567     5
 1566  1565  1569     5
 1567  1565  1569     5
 1565  1567  1568     5
 1549  1569  1565     5
 1549  1569  1570     5
 1549  1569  1571     5
 1565  1569  1570     5
 1565  1569  1571     5
 1570  1569  1571     5
 1569  1571  1572     5
 1571  1572  1573     5
 1571  1572  1574     5
 1571  1572  1575     5
 1573  1572  1574     5
 1573  1572  1575     5
 1574  1572  1575     5
 1572  1575  1576     5
 1575  1576  1577     5
 1575  1576  1578     5
 1575  1576  1579     5
 1577  1576  1578     5
 1577  1576  1579     5
 1578  1576  1579     5
 1576  1579  1580     5
 1576  1579  1581     5
 1576  1579  1602     5
 1580  1579  1581     5
 1580  1579  1602     5
 1581  1579  1602     5
 1579  1581  1582     5
 1581  1582  1583     5
 1581  1582  1584     5
 1581  1582  1598     5
 1583  1582  1584     5
 1583  1582  1598     5
 1584  1582  1598     5
 1582  1584  1587     5
 1582  1584  1593     5
 1587  1584  1593     5
 1586  1585  1593     5
 1586  1585  1594     5
 1593  1585  1594     5
 1585  1586  1587     5
 1584  1587  1586     5
 1584  1587  1588     5
 1586  1587  1588     5
 1590  1589  1594     5
 1589  1590  1591     5
 1589  1590  1592     5
 1591  1590  1592     5
 1590  1592  1593     5
 1584  1593  1585     5
 1584  1593  1592     5
 1585  1593  1592     5
 1585  1594  1589     5
 1585  1594  1595     5
 1589  1594  1595     5
 1594  1595  1596     5
 1594  1595  1597     5
 1596  1595  1597     5
 1582  1598  1599     5
 1582  1598  1600     5
 1582  1598  1602     5
 1599  1598  1600     5
 1599  1598  1602     5
 1600  1598  1602     5
 1598  1600  1601     5
 1579  1602  1598     5
 1579  1602  1603     5
 1579  1602  1604     5
 1598  1602  1603     5
 1598  1602  1604     5
 1603  1602  1604     5
 1602  1604  1605     5
 1604  1605  1606     5
 1604  1605  1607     5
 1604  1605  1608     5
 1606  1605  1607     5
 1606  1605  1608     5
 1607  1605  1608     5
 1605  1608  1609     5
 1608  1609  1610     5
 1608  1609  1611     5
 1608  1609  1612     5
 1610  1609  1611     5
 1610  1609  1612     5
 1611  1609  1612     5
 1609  1612  1613     5
 1609  1612  1614     5
 1609  1612  1632     5
 1613  1612  1614     5
 1613  1612  1632     5
 1614  1612  1632     5
 1612  1614  1615     5
 1614  1615  1616     5
 1614  1615  1617     5
 1614  1615  1628     5
 1616  1615  1617     5
 1616  1615  1628     5
 1617  1615  1628     5
 1615  1617  1618     5
 1615  1617  1620     5
 1618  1617  1620     5
 1617  1618  1619     5
 1617  1618  1626     5
 1619  1618  1626     5
 1617  1620  1621     5
 1617  1620  1622     5
 1621  1620  1622     5
 1620  1622  1623     5
 1620  1622  1624     5
 1623  1622  1624     5
 1622  1624  1625     5
 1622  1624  1626     5
 1625  1624  1626     5
 1618  1626  1624     5
 1618  1626  1627     5
 1624  1626  1627     5
 1615  1628  1629     5
 1615  1628  1630     5
 1615  1628  1632     5
 1629  1628  1630     5
 1629  1628  1632     5
 1630  1628  1632     5
 1628  1630  1631     5
 1612  1632  1628     5
 1612  1632  1633     5
 1612  1632  1634     5
 1628  1632  1633     5
 1628  1632  1634     5
 1633  1632  1634     5
 1632  1634  1635     5
 1634  1635  1636     5
 1634  1635  1637     5
 1634  1635  1638     5
 1636  1635  1637     5
 1636  1635  1638     5
 1637  1635  1638     5
 1635  1638  1639     5
 1638  1639  1640     5
 1638  1639  1641     5
 1638  1639  1642     5
 1640  1639  1641     5
 1640  1639  1642     5
 1641  1639  1642     5
 1639  1642  1643     5
 1639  1642  1644     5
 1639  1642  1663     5
 1643  1642  1644     5
 1643  1642  1663     5
 1644  1642  1663     5
 1642  1644  1645     5
 1644  1645  1646     5
 1644  1645  1647     5
 1644  1645  1659     5
 1646  1645  1647     5
 1646  1645  1659     5
 1647  1645  1659     5
 1645  1647  1648     5
 1645  1647  1652     5
 1648  1647  1652     5
 1647  1648  1649     5
 1647  1648  1650     5
 1649  1648  1650     5
 1648  1650  1651     5
 1648  1650  1655     5
 1651  1650  1655     5
 1647  1652  1653     5
 1647  1652  1654     5
 1653  1652  1654     5
 1652  1654  1655     5
 1650  1655  1654     5
 1650  1655  1656     5
 1654  1655  1656     5
 1655  1656  1657     5
 1655  1656  1658     5
 1657  1656  1658     5
 1645  1659  1660     5
 1645  1659  1661     5
 1645  1659  1663     5
 1660  1659  1661     5
 1660  1659  1663     5
 1661  1659  1663     5
 1659  1661  1662     5
 1642  1663  1659     5
 1642  1663  1664     5
 1642  1663  1665     5
 1659  1663  1664     5
 1659  1663  1665     5
 1664  1663  1665     5
 1663  1665  1666     5
 1665  1666  1667     5
 1665  1666  1668     5
 1665  1666  1669     5
 1667  1666  1668     5
 1667  1666  1669     5
 1668  1666  1669     5
 1666  1669  1670     5
 1669  1670  1671     5
 1669  1670  1672     5
 1669  1670  1673     5
 1671  1670  1672     5
 1671  1670  1673     5
 1672  1670  1673     5
 1670  1673  1674     5
 1670  1673  1675     5
 1670  1673  1696     5
 1674  1673  1675     5
 1674  1673  1696     5
 1675  1673  1696     5
 1673  1675  1676     5
 1675  1676  1677     5
 1675  1676  1678     5
 1675  1676  1692     5
 1677  1676  1678     5
 1677  1676  1692     5
 1678  1676  1692     5
 1676  1678  1681     5
 1676  1678  1687     5
 1681  1678  1687     5
 1680  1679  1687     5
 1680  1679  1688     5
 1687  1679  1688     5
 1679  1680  1681     5
 1678  1681  1680     5
 1678  1681  1682     5
 1680  1681  1682     5
 1684  1683  1688     5
 1683  1684  1685     5
 1683  1684  1686     5
 1685  1684  1686     5
 1684  1686  1687     5
 1678  1687  1679     5
 1678  1687  1686     5
 1679  1687  1686     5
 1679  1688  1683     5
 1679  1688  1689     5
 1683  1688  1689     5
 1688  1689  1690     5
 1688  1689  1691     5
 1690  1689  1691     5
 1676  1692  1693     5
 1676  1692  1694     5
 1676  1692  1696     5
 1693  1692  1694     5
 1693  1692  1696     5
 1694  1692  1696     5
 1692  1694  1695     5
 1673  1696  1692     5
 1673  1696  1697     5
 1673  1696  1698     5
 1692  1696  1697     5
 1692  1696  1698     5
 1697  1696  1698     5
 1696  1698  1699     5
 1698  1699  1700     5
 1698  1699  1701     5
 1698  1699  1702     5
 1700  1699  1701     5
 1700  1699  1702     5
 1701  1699  1702     5
 1699  1702  1703     5
 1702  1703  1704     5
 1702  1703  1705     5
 1702  1703  1706     5
 1704  1703  1705     5
 1704  1703  1706     5
 1705  1703  1706     5
 1703  1706  1707     5
 1703  1706  1708     5
 1703  1706  1727     5
 1707  1706  1708     5
 1707  1706  1727     5
 1708  1706  1727     5
 1706  1708  1709     5
 1708  1709  1710     5
 1708  1709  1711     5
 1708  1709  1723     5
 1710  1709  1711     5
 1710  1709  1723     5
 1711  1709  1723     5
 1709  1711  1712     5
 1709  1711  1716     5
 1712  1711  1716     5
 1711  1712  1713     5
 1711  1712  1714     5
 1713  1712  1714     5
 1712  1714  1715     5
 1712  1714  1719     5
 1715  1714  1719     5
 1711  1716  1717     5
 1711  1716  1718     5
 1717  1716  1718     5
 1716  1718  1719     5
 1714  1719  1718     5
 1714  1719  1720     5
 1718  1719  1720     5
 1719  1720  1721     5
 1719  1720  1722     5
 1721  1720  1722     5
 1709  1723  1724     5
 1709  1723  1725     5
 1709  1723  1727     5
 1724  1723  1725     5
 1724  1723  1727     5
 1725  1723  1727     5
 1723  1725  1726     5
 1706  1727  1723     5
 1706  1727  1728     5
 1706  1727  1729     5
 1723  1727  1728     5
 1723  1727  1729     5
 1728  1727  1729     5
 1727  1729  1730     5
 1729  1730  1731     5
 1729  1730  1732     5
 1729  1730  1733     5
 1731  1730  1732     5
 1731  1730  1733     5
 1732  1730  1733     5
 1730  1733  1734     5
 1733  1734  1735     5
 1733  1734  1736     5
 1733  1734  1737     5
 1735  1734  1736     5
 1735  1734  1737     5
 1736  1734  1737     5
 1734  1737  1738     5
 1734  1737  1739     5
 1734  1737  1758     5
 1738  1737  1739     5
 1738  1737  1758     5
 1739  1737  1758     5
 1737  1739  1740     5
 1739  1740  1741     5
 1739  1740  1742     5
 1739  1740  1754     5
 1741  1740  1742     5
 1741  1740  1754     5
 1742  1740  1754     5
 1740  1742  1743     5
 1740  1742  1747     5
 1743  1742  1747     5
 1742  1743  1744     5
 1742  1743  1745     5
 1744  1743  1745     5
 1743  1745  1746     5
 1743  1745  1750     5
 1746  1745  1750     5
 1742  1747  1748     5
 1742  1747  1749     5
 1748  1747  1749     5
 1747  1749  1750     5
 1745  1750  1749     5
 1745  1750  1751     5
 1749  1750  1751     5
 1750  1751  1752     5
 1750  1751  1753     5
 1752  1751  1753     5
 1740  1754  1755     5
 1740  1754  1756     5
 1740  1754  1758     5
 1755  1754  1756     5
 1755  1754  1758     5
 1756  1754  1758     5
 1754  1756  1757     5
 1737  1758  1754     5
 1737  1758  1759     5
 1737  1758  1760     5
 1754  1758  1759     5
 1754  1758  1760     5
 1759  1758  1760     5
 1758  1760  1761     5
 1760  1761  1762     5
 1760  1761  1763     5
 1760  1761  1764     5
 1762  1761  1763     5
 1762  1761  1764     5
 1763  1761  1764     5
 1761  1764  1765     5
 1764  1765  1766     5
 1764  1765  1767     5
 1764  1765  1768     5
 1766  1765  1767     5
 1766  1765  1768     5
 1767  1765  1768     5
 1765  1768  1769     5
 1765  1768  1770     5
 1765  1768  1788     5
 1769  1768  1770     5
 1769  1768  1788     5
 1770  1768  1788     5
 1768  1770  1771     5
 1770  1771  1772     5
 1770  1771  1773     5
 1770  1771  1784     5
 1772  1771  1773     5
 1772  1771  1784     5
 1773  1771  1784     5
 1771  1773  1774     5
 1771  1773  1776     5
 1774  1773  1776     5
 1773  1774  1775     5
 1773  1774  1782     5
 1775  1774  1782     5
 1773  1776  1777     5
 1773  1776  1778     5
 1777  1776  1778     5
 1776  1778  1779     5
 1776  1778  1780     5
 1779  1778  1780     5
 1778  1780  1781     5
 1778  1780  1782     5
 1781  1780  1782     5
 1774  1782  1780     5
 1774  1782  1783     5
 1780  1782  1783     5
 1771  1784  1785     5
 1771  1784  1786     5
 1771  1784  1788     5
 1785  1784  1786     5
 1785  1784  1788     5
 1786  1784  1788     5
 1784  1786  1787     5
 1768  1788  1784     5
 1768  1788  1789     5
 1768  1788  1790     5
 1784  1788  1789     5
 1784  1788  1790     5
 1789  1788  1790     5
 1788  1790  1791     5
 1790  1791  1792     5
 1790  1791  1793     5
 1790  1791  1794     5
 1792  1791  1793     5
 1792  1791  1794     5
 1793  1791  1794     5
 1791  1794  1795     5
 1794  1795  1796     5
 1794  1795  1797     5
 1794  1795  1798     5
 1796  1795  1797     5
 1796  1795  1798     5
 1797  1795  1798     5
 1795  1798  1799     5
 1795  1798  1800     5
 1795  1798  1822     5
 1799  1798  1800     5
 1799  1798  1822     5
 1800  1798  1822     5
 1798  1800  1801     5
 1800  1801  1802     5
 1800  1801  1803     5
 1800  1801  1818     5
 1802  1801  1803     5
 1802  1801  1818     5
 1803  1801  1818     5
 1801  1803  1804     5
 1801  1803  1816     5
 1804  1803  1816     5
 1803  1804  1808     5
 1803  1804  1814     5
 1808  1804  1814     5
 1806  1805  1807     5
 1806  1805  1809     5
 1807  1805  1809     5
 1804  1808  1809     5
 1805  1809  1808     5
 1805  1809  1810     5
 1808  1809  1810     5
 1809  1810  1811     5
 1809  1810  1812     5
 1811  1810  1812     5
 1810  1812  1813     5
 1810  1812  1814     5
 1813  1812  1814     5
 1804  1814  1812     5
 1804  1814  1815     5
 1812  1814  1815     5
 1814  1815  1816     5
 1803  1816  1815     5
 1803  1816  1817     5
 1815  1816  1817     5
 1801  1818  1819     5
 1801  1818  1820     5
 1801  1818  1822     5
 1819  1818  1820     5
 1819  1818  1822     5
 1820  1818  1822     5
 1818  1820  1821     5
 1798  1822  1818     5
 1798  1822  1823     5
 1798  1822  1824     5
 1818  1822  1823     5
 1818  1822  1824     5
 1823  1822  1824     5
 1822  1824  1825     5
 1824  1825  1826     5
 1824  1825  1827     5
 1824  1825  1828     5
 1826  1825  1827     5
 1826  1825  1828     5
 1827  1825  1828     5
 1825  1828  1829     5
 1828  1829  1830     5
 1828  1829  1831     5
 1828  1829  1832     5
 1830  1829  1831     5
 1830  1829  1832     5
 1831  1829  1832     5
 1829  1832  1833     5
 1829  1832  1834     5
 1829  1832  1855     5
 1833  1832  1834     5
 1833  1832  1855     5
 1834  1832  1855     5
 1832  1834  1835     5
 1834  1835  1836     5
 1834  1835  1837     5
 1834  1835  1851     5
 1836  1835  1837     5
 1836  1835  1851     5
 1837  1835  1851     5
 1835  1837  1840     5
 1835  1837  1846     5
 1840  1837  1846     5
 1839  1838  1846     5
 1839  1838  1847     5
 1846  1838  1847     5
 1838  1839  1840     5
 1837  1840  1839     5
 1837  1840  1841     5
 1839  1840  1841     5
 1843  1842  1847     5
 1842  1843  1844     5
 1842  1843  1845     5
 1844  1843  1845     5
 1843  1845  1846     5
 1837  1846  1838     5
 1837  1846  1845     5
 1838  1846  1845     5
 1838  1847  1842     5
 1838  1847  1848     5
 1842  1847  1848     5
 1847  1848  1849     5
 1847  1848  1850     5
 1849  1848  1850     5
 1835  1851  1852     5
 1835  1851  1853     5
 1835  1851  1855     5
 1852  1851  1853     5
 1852  1851  1855     5
 1853  1851  1855     5
 1851  1853  1854     5
 1832  1855  1851     5
 1832  1855  1856     5
 1832  1855  1857     5
 1851  1855  1856     5
 1851  1855  1857     5
 1856  1855  1857     5
 1855  1857  1858     5
 1857  1858  1859     5
 1857  1858  1860     5
 1857  1858  1861     5
 1859  1858  1860     5
 1859  1858  1861     5
 1860  1858  1861     5
 1858  1861  1862     5
 1861  1862  1863     5
 1861  1862  1864     5
 1861  1862  1865     5
 1863  1862  1864     5
 1863  1862  1865     5
 1864  1862  1865     5
 1862  1865  1866     5
 1862  1865  1867     5
 1862  1865  1885     5
 1866  1865  1867     5
 1866  1865  1885     5
 1867  1865  1885     5
 1865  1867  1868     5
 1867  1868  1869     5
 1867  1868  1870     5
 1867  1868  1881     5
 1869  1868  1870     5
 1869  1868  1881     5
 1870  1868  1881     5
 1868  1870  1871     5
 1868  1870  1873     5
 1871  1870  1873     5
 1870  1871  1872     5
 1870  1871  1879     5
 1872  1871  1879     5
 1870  1873  1874     5
 1870  1873  1875     5
 1874  1873  1875     5
 1873  1875  1876     5
 1873  1875  1877     5
 1876  1875  1877     5
 1875  1877  1878     5
 1875  1877  1879     5
 1878  1877  1879     5
 1871  1879  1877     5
 1871  1879  1880     5
 1877  1879  1880     5
 1868  1881  1882     5
 1868  1881  1883     5
 1868  1881  1885     5
 1882  1881  1883     5
 1882  1881  1885     5
 1883  1881  1885     5
 1881  1883  1884     5
 1865  1885  1881     5
 1865  1885  1886     5
 1865  1885  1887     5
 1881  1885  1886     5
 1881  1885  1887     5
 1886  1885  1887     5
 1885  1887  1888     5
 1887  1888  1889     5
 1887  1888  1890     5
 1887  1888  1891     5
 1889  1888  1890     5
 1889  1888  1891     5
 1890  1888  1891     5
 1888  1891  1892     5
 1891  1892  1893     5
 1891  1892  1894     5
 1891  1892  1895     5
 1893  1892  1894     5
 1893  1892  1895     5
 1894  1892  1895     5
 1892  1895  1896     5
 1892  1895  1897     5
 1892  1895  1916     5
 1896  1895  1897     5
 1896  1895  1916     5
 1897  1895  1916     5
 1895  1897  1898     5
 1897  1898  1899     5
 1897  1898  1900     5
 1897  1898  1912     5
 1899  1898  1900     5
 1899  1898  1912     5
 1900  1898  1912     5
 1898  1900  1901     5
 1898  1900  1905     5
 1901  1900  1905     5
 1900  1901  1902     5
 1900  1901  1903     5
 1902  1901  1903     5
 1901  1903  1904     5
 1901  1903  1908     5
 1904  1903  1908     5
 1900  1905  1906     5
 1900  1905  1907     5
 1906  1905  1907     5
 1905  1907  1908     5
 1903  1908  1907     5
 1903  1908  1909     5
 1907  1908  1909     5
 1908  1909  1910     5
 1908  1909  1911     5
 1910  1909  1911     5
 1898  1912  1913     5
 1898  1912  1914     5
 1898  1912  1916     5
 1913  1912  1914     5
 1913  1912  1916     5
 1914  1912  1916     5
 1912  1914  1915     5
 1895  1916  1912     5
 1895  1916  1917     5
 1895  1916  1918     5
 1912  1916  1917     5
 1912  1916  1918     5
 1917  1916  1918     5
 1916  1918  1919     5
 1918  1919  1920     5
 1918  1919  1921     5
 1918  1919  1922     5
 1920  1919  1921     5
 1920  1919  1922     5
 1921  1919  1922     5
 1919  1922  1923     5
 1922  1923  1924     5
 1922  1923  1925     5
 1922  1923  1926     5
 1924  1923  1925     5
 1924  1923  1926     5
 1925  1923  1926     5
 1923  1926  1927     5
 1923  1926  1928     5
 1923  1926  1946     5
 1927  1926  1928     5
 1927  1926  1946     5
 1928  1926  1946     5
 1926  1928  1929     5
 1928  1929  1930     5
 1928  1929  1931     5
 1928  1929  1942     5
 1930  1929  1931     5
 1930  1929  1942     5
 1931  1929  1942     5
 1929  1931  1932     5
 1929  1931  1934     5
 1932  1931  1934     5
 1931  1932  1933     5
 1931  1932  1940     5
 1933  1932  1940     5
 1931  1934  1935     5
 1931  1934  1936     5
 1935  1934  1936     5
 1934  1936  1937     5
 1934  1936  1938     5
 1937  1936  1938     5
 1936  1938  1939     5
 1936  1938  1940     5
 1939  1938  1940     5
 1932  1940  1938     5
 1932  1940  1941     5
 1938  1940  1941     5
 1929  1942  1943     5
 1929  1942  1944     5
 1929  1942  1946     5
 1943  1942  1944     5
 1943  1942  1946     5
 1944  1942  1946     5
 1942  1944  1945     5
 1926  1946  1942     5
 1926  1946  1947     5
 1926  1946  1948     5
 1942  1946  1947     5
 1942  1946  1948     5
 1947  1946  1948     5
 1946  1948  1949     5
 1948  1949  1950     5
 1948  1949  1951     5
 1948  1949  1952     5
 1950  1949  1951     5
 1950  1949  1952     5
 1951  1949  1952     5
 1949  1952  1953     5
 1952  1953  1954     5
 1952  1953  1955     5
 1952  1953  1956     5
 1954  1953  1955     5
 1954  1953  1956     5
 1955  1953  1956     5
 1953  1956  1957     5
 1953  1956  1958     5
 1953  1956  1980     5
 1957  1956  1958     5
 1957  1956  1980     5
 1958  1956  1980     5
 1956  1958  1959     5
 1958  1959  1960     5
 1958  1959  1961     5
 1958  1959  1976     5
 1960  1959  1961     5
 1960  1959  1976     5
 1961  1959  1976     5
 1959  1961  1962     5
 1959  1961  1974     5
 1962  1961  1974     5
 1961  1962  1966     5
 1961  1962  1972     5
 1966  1962  1972     5
 1964  1963  1965     5
 1964  1963  1967     5
 1965  1963  1967     5
 1962  1966  1967     5
 1963  1967  1966     5
 1963  1967  1968     5
 1966  1967  1968     5
 1967  1968  1969     5
 1967  1968  1970     5
 1969  1968  1970     5
 1968  1970  1971     5
 1968  1970  1972     5
 1971  1970  1972     5
 1962  1972  1970     5
 1962  1972  1973     5
 1970  1972  1973     5
 1972  1973  1974     5
 1961  1974  1973     5
 1961  1974  1975     5
 1973  1974  1975     5
 1959  1976  1977     5
 1959  1976  1978     5
 1959  1976  1980     5
 1977  1976  1978     5
 1977  1976  1980     5
 1978  1976  1980     5
 1976  1978  1979     5
 1956  1980  1976     5
 1956  1980  1981     5
 1956  1980  1982     5
 1976  1980  1981     5
 1976  1980  1982     5
 1981  1980  1982     5
 1980  1982  1983     5
 1982  1983  1984     5
 1982  1983  1985     5
 1982  1983  1986     5
 1984  1983  1985     5
 1984  1983  1986     5
 1985  1983  1986     5
 1983  1986  1987     5
 1986  1987  1988     5
 1986  1987  1989     5
 1986  1987  1990     5
 1988  1987  1989     5
 1988  1987  1990     5
 1989  1987  1990     5
 1987  1990  1991     5
 1987  1990  1992     5
 1987  1990  2014     5
 1991  1990  1992     5
 1991  1990  2014     5
 1992  1990  2014     5
 1990  1992  1993     5
 1992  1993  1994     5
 1992  1993  1995     5
 1992  1993  2010     5
 1994  1993  1995     5
 1994  1993  2010     5
 1995  1993  2010     5
 1993  1995  1996     5
 1993  1995  2008     5
 1996  1995  2008     5
 1995  1996  2000     5
 1995  1996  2006     5
 2000  1996  2006     5
 1998  1997  1999     5
 1998  1997  2001     5
 1999  1997  2001     5
 1996  2000  2001     5
 1997  2001  2000     5
 1997  2001  2002     5
 2000  2001  2002     5
 2001  2002  2003     5
 2001  2002  2004     5
 2003  2002  2004     5
 2002  2004  2005     5
 2002  2004  2006     5
 2005  2004  2006     5
 1996  2006  2004     5
 1996  2006  2007     5
 2004  2006  2007     5
 2006  2007  2008     5
 1995  2008  2007     5
 1995  2008  2009     5
 2007  2008  2009     5
 1993  2010  2011     5
 1993  2010  2012     5
 1993  2010  2014     5
 2011  2010  2012     5
 2011  2010  2014     5
 2012  2010  2014     5
 2010  2012  2013     5
 1990  2014  2010     5
 1990  2014  2015     5
 1990  2014  2016     5
 2010  2014  2015     5
 2010  2014  2016     5
 2015  2014  2016     5
 2014  2016  2017     5
 2016  2017  2018     5
 2016  2017  2019     5
 2016  2017  2020     5
 2018  2017  2019     5
 2018  2017  2020     5
 2019  2017  2020     5
 2017  2020  2021     5
 2020  2021  2022     5
 2020  2021  2023     5
 2020  2021  2024     5
 2022  2021  2023     5
 2022  2021  2024     5
 2023  2021  2024     5
 2021  2024  2025     5
 2021  2024  2026     5
 2021  2024  2047     5
 2025  2024  2026     5
 2025  2024  2047     5
 2026  2024  2047     5
 2024  2026  2027     5
 2026  2027  2028     5
 2026  2027  2029     5
 2026  2027  2043     5
 2028  2027  2029     5
 2028  2027  2043     5
 2029  2027  2043     5
 2027  2029  2032     5
 2027  2029  2038     5
 2032  2029  2038     5
 2031  2030  2038     5
 2031  2030  2039     5
 2038  2030  2039     5
 2030  2031  2032     5
 2029  2032  2031     5
 2029  2032  2033     5
 2031  2032  2033     5
 2035  2034  2039     5
 2034  2035  2036     5
 2034  2035  2037     5
 2036  2035  2037     5
 2035  2037  2038     5
 2029  2038  2030     5
 2029  2038  2037     5
 2030  2038  2037     5
 2030  2039  2034     5
 2030  2039  2040     5
 2034  2039  2040     5
 2039  2040  2041     5
 2039  2040  2042     5
 2041  2040  2042     5
 2027  2043  2044     5
 2027  2043  2045     5
 2027  2043  2047     5
 2044  2043  2045     5
 2044  2043  2047     5
 2045  2043  2047     5
 2043  2045  2046     5
 2024  2047  2043     5
 2024  2047  2048     5
 2024  2047  2049     5
 2043  2047  2048     5
 2043  2047  2049     5
 2048  2047  2049     5
 2047  2049  2050     5
 2049  2050  2051     5
 2049  2050  2052     5
 2049  2050  2053     5
 2051  2050  2052     5
 2051  2050  2053     5
 2052  2050  2053     5
 2050  2053  2054     5
 2053  2054  2055     5
 2053  2054  2056     5
 2053  2054  2057     5
 2055  2054  2056     5
 2055  2054  2057     5
 2056  2054  2057     5
 2054  2057  2058     5
 2054  2057  2059     5
 2054  2057  2077     5
 2058  2057  2059     5
 2058  2057  2077     5
 2059  2057  2077     5
 2057  2059  2060     5
 2059  2060  2061     5
 2059  2060  2062     5
 2059  2060  2073     5
 2061  2060  2062     5
 2061  2060  2073     5
 2062  2060  2073     5
 2060  2062  2063     5
 2060  2062  2065     5
 2063  2062  2065     5
 2062  2063  2064     5
 2062  2063  2071     5
 2064  2063  2071     5
 2062  2065  2066     5
 2062  2065  2067     5
 2066  2065  2067     5
 2065  2067  2068     5
 2065  2067  2069     5
 2068  2067  2069     5
 2067  2069  2070     5
 2067  2069  2071     5
 2070  2069  2071     5
 2063  2071  2069     5
 2063  2071  2072     5
 2069  2071  2072     5
 2060  2073  2074     5
 2060  2073  2075     5
 2060  2073  2077     5
 2074  2073  2075     5
 2074  2073  2077     5
 2075  2073  2077     5
 2073  2075  2076     5
 2057  2077  2073     5
 2057  2077  2078     5
 2057  2077  2079     5
 2073  2077  2078     5
 2073  2077  2079     5
 2078  2077  2079     5
 2077  2079  2080     5
 2079  2080  2081     5
 2079  2080  2082     5
 2079  2080  2083     5
 2081  2080  2082     5
 2081  2080  2083     5
 2082  2080  2083     5
 2080  2083  2084     5
 2083  2084  2085     5
 2083  2084  2086     5
 2083  2084  2087     5
 2085  2084  2086     5
 2085  2084  2087     5
 2086  2084  2087     5
 2084  2087  2088     5
 2084  2087  2089     5
 2084  2087  2110     5
 2088  2087  2089     5
 2088  2087  2110     5
 2089  2087  2110     5
 2087  2089  2090     5
 2089  2090  2091     5
 2089  2090  2092     5
 2089  2090  2106     5
 2091  2090  2092     5
 2091  2090  2106     5
 2092  2090  2106     5
 2090  2092  2095     5
 2090  2092  2101     5
 2095  2092  2101     5
 2094  2093  2101     5
 2094  2093  2102     5
 2101  2093  2102     5
 2093  2094  2095     5
 2092  2095  2094     5
 2092  2095  2096     5
 2094  2095  2096     5
 2098  2097  2102     5
 2097  2098  2099     5
 2097  2098  2100     5
 2099  2098  2100     5
 2098  2100  2101     5
 2092  2101  2093     5
 2092  2101  2100     5
 2093  2101  2100     5
 2093  2102  2097     5
 2093  2102  2103     5
 2097  2102  2103     5
 2102  2103  2104     5
 2102  2103  2105     5
 2104  2103  2105     5
 2090  2106  2107     5
 2090  2106  2108     5
 2090  2106  2110     5
 2107  2106  2108     5
 2107  2106  2110     5
 2108  2106  2110     5
 2106  2108  2109     5
 2087  2110  2106     5
 2087  2110  2111     5
 2087  2110  2112     5
 2106  2110  2111     5
 2106  2110  2112     5
 2111  2110  2112     5
 2110  2112  2113     5
 2112  2113  2114     5
 2112  2113  2115     5
 2112  2113  2116     5
 2114  2113  2115     5
 2114  2113  2116     5
 2115  2113  2116     5
 2113  2116  2117     5
 2116  2117  2118     5
 2116  2117  2119     5
 2116  2117  2120     5
 2118  2117  2119     5
 2118  2117  2120     5
 2119  2117  2120     5
 2117  2120  2121     5
 2117  2120  2122     5
 2117  2120  2143     5
 2121  2120  2122     5
 2121  2120  2143     5
 2122  2120  2143     5
 2120  2122  2123     5
 2122  2123  2124     5
 2122  2123  2125     5
 2122  2123  2139     5
 2124  2123  2125     5
 2124  2123  2139     5
 2125  2123  2139     5
 2123  2125  2128     5
 2123  2125  2134     5
 2128  2125  2134     5
 2127  2126  2134     5
 2127  2126  2135     5
 2134  2126  2135     5
 2126  2127  2128     5
 2125  2128  2127     5
 2125  2128  2129     5
 2127  2128  2129     5
 2131  2130  2135     5
 2130  2131  2132     5
 2130  2131  2133     5
 2132  2131  2133     5
 2131  2133  2134     5
 2125  2134  2126     5
 2125  2134  2133     5
 2126  2134  2133     5
 2126  2135  2130     5
 2126  2135  2136     5
 2130  2135  2136     5
 2135  2136  2137     5
 2135  2136  2138     5
 2137  2136  2138     5
 2123  2139  2140     5
 2123  2139  2141     5
 2123  2139  2143     5
 2140  2139  2141     5
 2140  2139  2143     5
 2141  2139  2143     5
 2139  2141  2142     5
 2120  2143  2139     5
 2120  2143  2144     5
 2120  2143  2145     5
 2139  2143  2144     5
 2139  2143  2145     5
 2144  2143  2145     5
 2143  2145  2146     5
 2145  2146  2147     5
 2145  2146  2148     5
 2145  2146  2149     5
 2147  2146  2148     5
 2147  2146  2149     5
 2148  2146  2149     5
 2146  2149  2150     5
 2149  2150  2151     5
 2149  2150  2152     5
 2149  2150  2153     5
 2151  2150  2152     5
 2151  2150  2153     5
 2152  2150  2153     5
 2150  2153  2154     5
 2150  2153  2155     5
 2150  2153  2173     5
 2154  2153  2155     5
 2154  2153  2173     5
 2155  2153  2173     5
 2153  2155  2156     5
 2155  2156  2157     5
 2155  2156  2158     5
 2155  2156  2169     5
 2157  2156  2158     5
 2157  2156  2169     5
 2158  2156  2169     5
 2156  2158  2159     5
 2156  2158  2161     5
 2159  2158  2161     5
 2158  2159  2160     5
 2158  2159  2167     5
 2160  2159  2167     5
 2158  2161  2162     5
 2158  2161  2163     5
 2162  2161  2163     5
 2161  2163  2164     5
 2161  2163  2165     5
 2164  2163  2165     5
 2163  2165  2166     5
 2163  2165  2167     5
 2166  2165  2167     5
 2159  2167  2165     5
 2159  2167  2168     5
 2165  2167  2168     5
 2156  2169  2170     5
 2156  2169  2171     5
 2156  2169  2173     5
 2170  2169  2171     5
 2170  2169  2173     5
 2171  2169  2173     5
 2169  2171  2172     5
 2153  2173  2169     5
 2153  2173  2174     5
 2153  2173  2175     5
 2169  2173  2174     5
 2169  2173  2175     5
 2174  2173  2175     5
 2173  2175  2176     5
 2175  2176  2177     5
 2175  2176  2178     5
 2175  2176  2179     5
 2177  2176  2178     5
 2177  2176  2179     5
 2178  2176  2179     5
 2176  2179  2180     5
 2179  2180  2181     5
 2179  2180  2182     5
 2179  2180  2183     5
 2181  2180  2182     5
 2181  2180  2183     5
 2182  2180  2183     5
 2180  2183  2184     5
 2180  2183  2185     5
 2180  2183  2207     5
 2184  2183  2185     5
 2184  2183  2207     5
 2185  2183  2207     5
 2183  2185  2186     5
 2185  2186  2187     5
 2185  2186  2188     5
 2185  2186  2203     5
 2187  2186  2188     5
 2187  2186  2203     5
 2188  2186  2203     5
 2186  2188  2189     5
 2186  2188  2201     5
 2189  2188  2201     5
 2188  2189  2193     5
 2188  2189  2199     5
 2193  2189  2199     5
 2191  2190  2192     5
 2191  2190  2194     5
 2192  2190  2194     5
 2189  2193  2194     5
 2190  2194  2193     5
 2190  2194  2195     5
 2193  2194  2195     5
 2194  2195  2196     5
 2194  2195  2197     5
 2196  2195  2197     5
 2195  2197  2198     5
 2195  2197  2199     5
 2198  2197  2199     5
 2189  2199  2197     5
 2189  2199  2200     5
 2197  2199  2200     5
 2199  2200  2201     5
 2188  2201  2200     5
 2188  2201  2202     5
 2200  2201  2202     5
 2186  2203  2204     5
 2186  2203  2205     5
 2186  2203  2207     5
 2204  2203  2205     5
 2204  2203  2207     5
 2205  2203  2207     5
 2203  2205  2206     5
 2183  2207  2203     5
 2183  2207  2208     5
 2183  2207  2209     5
 2203  2207  2208     5
 2203  2207  2209     5
 2208  2207  2209     5
 2207  2209  2210     5
 2209  2210  2211     5
 2209  2210  2212     5
 2209  2210  2213     5
 2211  2210  2212     5
 2211  2210  2213     5
 2212  2210  2213     5
 2210  2213  2214     5
 2213  2214  2215     5
 2213  2214  2216     5
 2213  2214  2217     5
 2215  2214  2216     5
 2215  2214  2217     5
 2216  2214  2217     5
 2214  2217  2218     5
 2214  2217  2219     5
 2214  2217  2238     5
 2218  2217  2219     5
 2218  2217  2238     5
 2219  2217  2238     5
 2217  2219  2220     5
 2219  2220  2221     5
 2219  2220  2222     5
 2219  2220  2234     5
 2221  2220  2222     5
 2221  2220  2234     5
 2222  2220  2234     5
 2220  2222  2223     5
 2220  2222  2227     5
 2223  2222  2227     5
 2222  2223  2224     5
 2222  2223  2225     5
 2224  2223  2225     5
 2223  2225  2226     5
 2223  2225  2230     5
 2226  2225  2230     5
 2222  2227  2228     5
 2222  2227  2229     5
 2228  2227  2229     5
 2227  2229  2230     5
 2225  2230  2229     5
 2225  2230  2231     5
 2229  2230  2231     5
 2230  2231  2232     5
 2230  2231  2233     5
 2232  2231  2233     5
 2220  2234  2235     5
 2220  2234  2236     5
 2220  2234  2238     5
 2235  2234  2236     5
 2235  2234  2238     5
 2236  2234  2238     5
 2234  2236  2237     5
 2217  2238  2234     5
 2217  2238  2239     5
 2217  2238  2240     5
 2234  2238  2239     5
 2234  2238  2240     5
 2239  2238  2240     5
 2238  2240  2241     5
 2240  2241  2242     5
 2240  2241  2243     5
 2240  2241  2244     5
 2242  2241  2243     5
 2242  2241  2244     5
 2243  2241  2244     5
 2241  2244  2245     5
 2244  2245  2246     5
 2244  2245  2247     5
 2244  2245  2248     5
 2246  2245  2247     5
 2246  2245  2248     5
 2247  2245  2248     5
 2245  2248  2249     5
 2245  2248  2250     5
 2245  2248  2269     5
 2249  2248  2250     5
 2249  2248  2269     5
 2250  2248  2269     5
 2248  2250  2251     5
 2250  2251  2252     5
 2250  2251  2253     5
 2250  2251  2265     5
 2252  2251  2253     5
 2252  2251  2265     5
 2253  2251  2265     5
 2251  2253  2254     5
 2251  2253  2258     5
 2254  2253  2258     5
 2253  2254  2255     5
 2253  2254  2256     5
 2255  2254  2256     5
 2254  2256  2257     5
 2254  2256  2261     5
 2257  2256  2261     5
 2253  2258  2259     5
 2253  2258  2260     5
 2259  2258  2260     5
 2258  2260  2261     5
 2256  2261  2260     5
 2256  2261  2262     5
 2260  2261  2262     5
 2261  2262  2263     5
 2261  2262  2264     5
 2263  2262  2264     5
 2251  2265  2266     5
 2251  2265  2267     5
 2251  2265  2269     5
 2266  2265  2267     5
 2266  2265  2269     5
 2267  2265  2269     5
 2265  2267  2268     5
 2248  2269  2265     5
 2248  2269  2270     5
 2248  2269  2271     5
 2265  2269  2270     5
 2265  2269  2271     5
 2270  2269  2271     5
 2269  2271  2272     5
 2271  2272  2273     5
 2271  2272  2274     5
 2271  2272  2275     5
 2273  2272  2274     5
 2273  2272  2275     5
 2274  2272  2275     5
 2272  2275  2276     5
 2275  2276  2277     5
 2275  2276  2278     5
 2275  2276  2279     5
 2277  2276  2278     5
 2277  2276  2279     5
 2278  2276  2279     5
 2276  2279  2280     5
 2276  2279  2281     5
 2276  2279  2302     5
 2280  2279  2281     5
 2280  2279  2302     5
 2281  2279  2302     5
 2279  2281  2282     5
 2281  2282  2283     5
 2281  2282  2284     5
 2281  2282  2298     5
 2283  2282  2284     5
 2283  2282  2298     5
 2284  2282  2298     5
 2282  2284  2287     5
 2282  2284  2293     5
 2287  2284  2293     5
 2286  2285  2293     5
 2286  2285  2294     5
 2293  2285  2294     5
 2285  2286  2287     5
 2284  2287  2286     5
 2284  2287  2288     5
 2286  2287  2288     5
 2290  2289  2294     5
 2289  2290  2291     5
 2289  2290  2292     5
 2291  2290  2292     5
 2290  2292  2293     5
 2284  2293  2285     5
 2284  2293  2292     5
 2285  2293  2292     5
 2285  2294  2289     5
 2285  2294  2295     5
 2289  2294  2295     5
 2294  2295  2296     5
 2294  2295  2297     5
 2296  2295  2297     5
 2282  2298  2299     5
 2282  2298  2300     5
 2282  2298  2302     5
 2299  2298  2300     5
 2299  2298  2302     5
 2300  2298  2302     5
 2298  2300  2301     5
 2279  2302  2298     5
 2279  2302  2303     5
 2279  2302  2304     5
 2298  2302  2303     5
 2298  2302  2304     5
 2303  2302  2304     5
 2302  2304  2305     5
 2304  2305  2306     5
 2304  2305  2307     5
 2304  2305  2308     5
 2306  2305  2307     5
 2306  2305  2308     5
 2307  2305  2308     5
 2305  2308  2309     5
 2308  2309  2310     5
 2308  2309  2311     5
 2308  2309  2312     5
 2310  2309  2311     5
 2310  2309  2312     5
 2311  2309  2312     5
 2309  2312  2313     5
 2309  2312  2314     5
 2309  2312  2336     5
 2313  2312  2314     5
 2313  2312  2336     5
 2314  2312  2336     5
 2312  2314  2315     5
 2314  2315  2316     5
 2314  2315  2317     5
 2314  2315  2332     5
 2316  2315  2317     5
 2316  2315  2332     5
 2317  2315  2332     5
 2315  2317  2318     5
 2315  2317  2330     5
 2318  2317  2330     5
 2317  2318  2322     5
 2317  2318  2328     5
 2322  2318  2328     5
 2320  2319  2321     5
 2320  2319  2323     5
 2321  2319  2323     5
 2318  2322  2323     5
 2319  2323  2322     5
 2319  2323  2324     5
 2322  2323  2324     5
 2323  2324  2325     5
 2323  2324  2326     5
 2325  2324  2326     5
 2324  2326  2327     5
 2324  2326  2328     5
 2327  2326  2328     5
 2318  2328  2326     5
 2318  2328  2329     5
 2326  2328  2329     5
 2328  2329  2330     5
 2317  2330  2329     5
 2317  2330  2331     5
 2329  2330  2331     5
 2315  2332  2333     5
 2315  2332  2334     5
 2315  2332  2336     5
 2333  2332  2334     5
 2333  2332  2336     5
 2334  2332  2336     5
 2332  2334  2335     5
 2312  2336  2332     5
 2312  2336  2337     5
 2312  2336  2338     5
 2332  2336  2337     5
 2332  2336  2338     5
 2337  2336  2338     5
 2336  2338  2339     5
 2338  2339  2340     5
 2338  2339  2341     5
 2338  2339  2342     5
 2340  2339  2341     5
 2340  2339  2342     5
 2341  2339  2342     5
 2339  2342  2343     5
 2342  2343  2344     5
 2342  2343  2345     5
 2342  2343  2346     5
 2344  2343  2345     5
 2344  2343  2346     5
 2345  2343  2346     5
 2343  2346  2347     5
 2343  2346  2348     5
 2343  2346  2367     5
 2347  2346  2348     5
 2347  2346  2367     5
 2348  2346  2367     5
 2346  2348  2349     5
 2348  2349  2350     5
 2348  2349  2351     5
 2348  2349  2363     5
 2350  2349  2351     5
 2350  2349  2363     5
 2351  2349  2363     5
 2349  2351  2352     5
 2349  2351  2356     5
 2352  2351  2356     5
 2351  2352  2353     5
 2351  2352  2354     5
 2353  2352  2354     5
 2352  2354  2355     5
 2352  2354  2359     5
 2355  2354  2359     5
 2351  2356  2357     5
 2351  2356  2358     5
 2357  2356  2358     5
 2356  2358  2359     5
 2354  2359  2358     5
 2354  2359  2360     5
 2358  2359  2360     5
 2359  2360  2361     5
 2359  2360  2362     5
 2361  2360  2362     5
 2349  2363  2364     5
 2349  2363  2365     5
 2349  2363  2367     5
 2364  2363  2365     5
 2364  2363  2367     5
 2365  2363  2367     5
 2363  2365  2366     5
 2346  2367  2363     5
 2346  2367  2368     5
 2346  2367  2369     5
 2363  2367  2368     5
 2363  2367  2369     5
 2368  2367  2369     5
 2367  2369  2370     5
 2369  2370  2371     5
 2369  2370  2372     5
 2369  2370  2373     5
 2371  2370  2372     5
 2371  2370  2373     5
 2372  2370  2373     5
 2370  2373  2374     5
 2373  2374  2375     5
 2373  2374  2376     5
 2373  2374  2377     5
 2375  2374  2376     5
 2375  2374  2377     5
 2376  2374  2377     5
 2374  2377  2378     5
 2374  2377  2379     5
 2374  2377  2401     5
 2378  2377  2379     5
 2378  2377  2401     5
 2379  2377  2401     5
 2377  2379  2380     5
 2379  2380  2381     5
 2379  2380  2382     5
 2379  2380  2397     5
 2381  2380  2382     5
 2381  2380  2397     5
 2382  2380  2397     5
 2380  2382  2383     5
 2380  2382  2395     5
 2383  2382  2395     5
 2382  2383  2387     5
 2382  2383  2393     5
 2387  2383  2393     5
 2385  2384  2386     5
 2385  2384  2388     5
 2386  2384  2388     5
 2383  2387  2388     5
 2384  2388  2387     5
 2384  2388  2389     5
 2387  2388  2389     5
 2388  2389  2390     5
 2388  2389  2391     5
 2390  2389  2391     5
 2389  2391  2392     5
 2389  2391  2393     5
 2392  2391  2393     5
 2383  2393  2391     5
 2383  2393  2394     5
 2391  2393  2394     5
 2393  2394  2395     5
 2382  2395  2394     5
 2382  2395  2396     5
 2394  2395  2396     5
 2380  2397  2398     5
 2380  2397  2399     5
 2380  2397  2401     5
 2398  2397  2399     5
 2398  2397  2401     5
 2399  2397  2401     5
 2397  2399  2400     5
 2377  2401  2397     5
 2377  2401  2402     5
 2377  2401  2403     5
 2397  2401  2402     5
 2397  2401  2403     5
 2402  2401  2403     5
 2401  2403  2404     5
 2403  2404  2405     5
 2403  2404  2406     5
 2403  2404  2407     5
 2405  2404  2406     5
 2405  2404  2407     5
 2406  2404  2407     5
 2404  2407  2408     5
 2407  2408  2409     5
 2407  2408  2410     5
 2407  2408  2411     5
 2409  2408  2410     5
 2409  2408  2411     5
 2410  2408  2411     5
 2408  2411  2412     5
 2408  2411  2413     5
 2408  2411  2431     5
 2412  2411  2413     5
 2412  2411  2431     5
 2413  2411  2431     5
 2411  2413  2414     5
 2413  2414  2415     5
 2413  2414  2416     5
 2413  2414  2427     5
 2415  2414  2416     5
 2415  2414  2427     5
 2416  2414  2427     5
 2414  2416  2417     5
 2414  2416  2419     5
 2417  2416  2419     5
 2416  2417  2418     5
 2416  2417  2425     5
 2418  2417  2425     5
 2416  2419  2420     5
 2416  2419  2421     5
 2420  2419  2421     5
 2419  2421  2422     5
 2419  2421  2423     5
 2422  2421  2423     5
 2421  2423  2424     5
 2421  2423  2425     5
 2424  2423  2425     5
 2417  2425  2423     5
 2417  2425  2426     5
 2423  2425  2426     5
 2414  2427  2428     5
 2414  2427  2429     5
 2414  2427  2431     5
 2428  2427  2429     5
 2428  2427  2431     5
 2429  2427  2431     5
 2427  2429  2430     5
 2411  2431  2427     5
 2411  2431  2432     5
 2411  2431  2433     5
 2427  2431  2432     5
 2427  2431  2433     5
 2432  2431  2433     5
 2431  2433  2434     5
 2433  2434  2435     5
 2433  2434  2436     5
 2433  2434  2437     5
 2435  2434  2436     5
 2435  2434  2437     5
 2436  2434  2437     5
 2434  2437  2438     5
 2437  2438  2439     5
 2437  2438  2440     5
 2437  2438  2441     5
 2439  2438  2440     5
 2439  2438  2441     5
 2440  2438  2441     5
 2438  2441  2442     5
 2438  2441  2443     5
 2438  2441  2464     5
 2442  2441  2443     5
 2442  2441  2464     5
 2443  2441  2464     5
 2441  2443  2444     5
 2443  2444  2445     5
 2443  2444  2446     5
 2443  2444  2460     5
 2445  2444  2446     5
 2445  2444  2460     5
 2446  2444  2460     5
 2444  2446  2449     5
 2444  2446  2455     5
 2449  2446  2455     5
 2448  2447  2455     5
 2448  2447  2456     5
 2455  2447  2456     5
 2447  2448  2449     5
 2446  2449  2448     5
 2446  2449  2450     5
 2448  2449  2450     5
 2452  2451  2456     5
 2451  2452  2453     5
 2451  2452  2454     5
 2453  2452  2454     5
 2452  2454  2455     5
 2446  2455  2447     5
 2446  2455  2454     5
 2447  2455  2454     5
 2447  2456  2451     5
 2447  2456  2457     5
 2451  2456  2457     5
 2456  2457  2458     5
 2456  2457  2459     5
 2458  2457  2459     5
 2444  2460  2461     5
 2444  2460  2462     5
 2444  2460  2464     5
 2461  2460  2462     5
 2461  2460  2464     5
 2462  2460  2464     5
 2460  2462  2463     5
 2441  2464  2460     5
 2441  2464  2465     5
 2441  2464  2466     5
 2460  2464  2465     5
 2460  2464  2466     5
 2465  2464  2466     5
 2464  2466  2467     5
 2466  2467  2468     5
 2466  2467  2469     5
 2466  2467  2470     5
 2468  2467  2469     5
 2468  2467  2470     5
 2469  2467  2470     5
 2467  2470  2471     5
 2470  2471  2472     5
 2470  2471  2473     5
 2470  2471  2474     5
 2472  2471  2473     5
 2472  2471  2474     5
 2473  2471  2474     5
 2471  2474  2475     5
 2471  2474  2476     5
 2471  2474  2498     5
 2475  2474  2476     5
 2475  2474  2498     5
 2476  2474  2498     5
 2474  2476  2477     5
 2476  2477  2478     5
 2476  2477  2479     5
 2476  2477  2494     5
 2478  2477  2479     5
 2478  2477  2494     5
 2479  2477  2494     5
 2477  2479  2480     5
 2477  2479  2492     5
 2480  2479  2492     5
 2479  2480  2484     5
 2479  2480  2490     5
 2484  2480  2490     5
 2482  2481  2483     5
 2482  2481  2485     5
 2483  2481  2485     5
 2480  2484  2485     5
 2481  2485  2484     5
 2481  2485  2486     5
 2484  2485  2486     5
 2485  2486  2487     5
 2485  2486  2488     5
 2487  2486  2488     5
 2486  2488  2489     5
 2486  2488  2490     5
 2489  2488  2490     5
 2480  2490  2488     5
 2480  2490  2491     5
 2488  2490  2491     5
 2490  2491  2492     5
 2479  2492  2491     5
 2479  2492  2493     5
 2491  2492  2493     5
 2477  2494  2495     5
 2477  2494  2496     5
 2477  2494  2498     5
 2495  2494  2496     5
 2495  2494  2498     5
 2496  2494  2498     5
 2494  2496  2497     5
 2474  2498  2494     5
 2474  2498  2499     5
 2474  2498  2500     5
 2494  2498  2499     5
 2494  2498  2500     5
 2499  2498  2500     5
 2498  2500  2501     5
 2500  2501  2502     5
 2500  2501  2503     5
 2500  2501  2504     5
 2502  2501  2503     5
 2502  2501  2504     5
 2503  2501  2504     5
 2501  2504  2505     5
 2504  2505  2506     5
 2504  2505  2507     5
 2504  2505  2508     5
 2506  2505  2507     5
 2506  2505  2508     5
 2507  2505  2508     5
 2505  2508  2509     5
 2505  2508  2510     5
 2505  2508  2532     5
 2509  2508  2510     5
 2509  2508  2532     5
 2510  2508  2532     5
 2508  2510  2511     5
 2510  2511  2512     5
 2510  2511  2513     5
 2510  2511  2528     5
 2512  2511  2513     5
 2512  2511  2528     5
 2513  2511  2528     5
 2511  2513  2514     5
 2511  2513  2526     5
 2514  2513  2526     5
 2513  2514  2518     5
 2513  2514  2524     5
 2518  2514  2524     5
 2516  2515  2517     5
 2516  2515  2519     5
 2517  2515  2519     5
 2514  2518  2519     5
 2515  2519  2518     5
 2515  2519  2520     5
 2518  2519  2520     5
 2519  2520  2521     5
 2519  2520  2522     5
 2521  2520  2522     5
 2520  2522  2523     5
 2520  2522  2524     5
 2523  2522  2524     5
 2514  2524  2522     5
 2514  2524  2525     5
 2522  2524  2525     5
 2524  2525  2526     5
 2513  2526  2525     5
 2513  2526  2527     5
 2525  2526  2527     5
 2511  2528  2529     5
 2511  2528  2530     5
 2511  2528  2532     5
 2529  2528  2530     5
 2529  2528  2532     5
 2530  2528  2532     5
 2528  2530  2531     5
 2508  2532  2528     5
 2508  2532  2533     5
 2508  2532  2534     5
 2528  2532  2533     5
 2528  2532  2534     5
 2533  2532  2534     5
 2532  2534  2535     5
 2534  2535  2536     5
 2534  2535  2537     5
 2534  2535  2538     5
 2536  2535  2537     5
 2536  2535  2538     5
 2537  2535  2538     5
 2535  2538  2539     5
 2538  2539  2540     5
 2538  2539  2541     5
 2538  2539  2542     5
 2540  2539  2541     5
 2540  2539  2542     5
 2541  2539  2542     5
 2539  2542  2543     5
 2539  2542  2544     5
 2539  2542  2566     5
 2543  2542  2544     5
 2543  2542  2566     5
 2544  2542  2566     5
 2542  2544  2545     5
 2544  2545  2546     5
 2544  2545  2547     5
 2544  2545  2562     5
 2546  2545  2547     5
 2546  2545  2562     5
 2547  2545  2562     5
 2545  2547  2548     5
 2545  2547  2560     5
 2548  2547  2560     5
 2547  2548  2552     5
 2547  2548  2558     5
 2552  2548  2558     5
 2550  2549  2551     5
 2550  2549  2553     5
 2551  2549  2553     5
 2548  2552  2553     5
 2549  2553  2552     5
 2549  2553  2554     5
 2552  2553  2554     5
 2553  2554  2555     5
 2553  2554  2556     5
 2555  2554  2556     5
 2554  2556  2557     5
 2554  2556  2558     5
 2557  2556  2558     5
 2548  2558  2556     5
 2548  2558  2559     5
 2556  2558  2559     5
 2558  2559  2560     5
 2547  2560  2559     5
 2547  2560  2561     5
 2559  2560  2561     5
 2545  2562  2563     5
 2545  2562  2564     5
 2545  2562  2566     5
 2563  2562  2564     5
 2563  2562  2566     5
 2564  2562  2566     5
 2562  2564  2565     5
 2542  2566  2562     5
 2542  2566  2567     5
 2542  2566  2568     5
 2562  2566  2567     5
 2562  2566  2568     5
 2567  2566  2568     5
 2566  2568  2569     5
 2568  2569  2570     5
 2568  2569  2571     5
 2568  2569  2572     5
 2570  2569  2571     5
 2570  2569  2572     5
 2571  2569  2572     5
 2569  2572  2573     5
 2572  2573  2574     5
 2572  2573  2575     5
 2572  2573  2576     5
 2574  2573  2575     5
 2574  2573  2576     5
 2575  2573  2576     5
 2573  2576  2577     5
 2573  2576  2578     5
 2573  2576  2599     5
 2577  2576  2578     5
 2577  2576  2599     5
 2578  2576  2599     5
 2576  2578  2579     5
 2578  2579  2580     5
 2578  2579  2581     5
 2578  2579  2595     5
 2580  2579  2581     5
 2580  2579  2595     5
 2581  2579  2595     5
 2579  2581  2584     5
 2579  2581  2590     5
 2584  2581  2590     5
 2583  2582  2590     5
 2583  2582  2591     5
 2590  2582  2591     5
 2582  2583  2584     5
 2581  2584  2583     5
 2581  2584  2585     5
 2583  2584  2585     5
 2587  2586  2591     5
 2586  2587  2588     5
 2586  2587  2589     5
 2588  2587  2589     5
 2587  2589  2590     5
 2581  2590  2582     5
 2581  2590  2589     5
 2582  2590  2589     5
 2582  2591  2586     5
 2582  2591  2592     5
 2586  2591  2592     5
 2591  2592  2593     5
 2591  2592  2594     5
 2593  2592  2594     5
 2579  2595  2596     5
 2579  2595  2597     5
 2579  2595  2599     5
 2596  2595  2597     5
 2596  2595  2599     5
 2597  2595  2599     5
 2595  2597  2598     5
 2576  2599  2595     5
 2576  2599  2600     5
 2576  2599  2601     5
 2595  2599  2600     5
 2595  2599  2601     5
 2600  2599  2601     5
 2599  2601  2602     5
 2601  2602  2603     5
 2601  2602  2604     5
 2601  2602  2605     5
 2603  2602  2604     5
 2603  2602  2605     5
 2604  2602  2605     5
 2602  2605  2606     5
 2605  2606  2607     5
 2605  2606  2608     5
 2605  2606  2609     5
 2607  2606  2608     5
 2607  2606  2609     5
 2608  2606  2609     5
 2606  2609  2610     5
 2606  2609  2611     5
 2606  2609  2632     5
 2610  2609  2611     5
 2610  2609  2632     5
 2611  2609  2632     5
 2609  2611  2612     5
 2611  2612  2613     5
 2611  2612  2614     5
 2611  2612  2628     5
 2613  2612  2614     5
 2613  2612  2628     5
 2614  2612  2628     5
 2612  2614  2617     5
 2612  2614  2623     5
 2617  2614  2623     5
 2616  2615  2623     5
 2616  2615  2624     5
 2623  2615  2624     5
 2615  2616  2617     5
 2614  2617  2616     5
 2614  2617  2618     5
 2616  2617  2618     5
 2620  2619  2624     5
 2619  2620  2621     5
 2619  2620  2622     5
 2621  2620  2622     5
 2620  2622  2623     5
 2614  2623  2615     5
 2614  2623  2622     5
 2615  2623  2622     5
 2615  2624  2619     5
 2615  2624  2625     5
 2619  2624  2625     5
 2624  2625  2626     5
 2624  2625  2627     5
 2626  2625  2627     5
 2612  2628  2629     5
 2612  2628  2630     5
 2612  2628  2632     5
 2629  2628  2630     5
 2629  2628  2632     5
 2630  2628  2632     5
 2628  2630  2631     5
 2609  2632  2628     5
 2609  2632  2633     5
 2609  2632  2634     5
 2628  2632  2633     5
 2628  2632  2634     5
 2633  2632  2634     5
 2632  2634  2635     5
 2634  2635  2636     5
 2634  2635  2637     5
 2634  2635  2638     5
 2636  2635  2637     5
 2636  2635  2638     5
 2637  2635  2638     5
 2635  2638  2639     5
 2638  2639  2640     5
 2638  2639  2641     5
 2638  2639  2642     5
 2640  2639  2641     5
 2640  2639  2642     5
 2641  2639  2642     5
 2639  2642  2643     5
 2639  2642  2644     5
 2639  2642  2666     5
 2643  2642  2644     5
 2643  2642  2666     5
 2644  2642  2666     5
 2642  2644  2645     5
 2644  2645  2646     5
 2644  2645  2647     5
 2644  2645  2662     5
 2646  2645  2647     5
 2646  2645  2662     5
 2647  2645  2662     5
 2645  2647  2648     5
 2645  2647  2660     5
 2648  2647  2660     5
 2647  2648  2652     5
 2647  2648  2658     5
 2652  2648  2658     5
 2650  2649  2651     5
 2650  2649  2653     5
 2651  2649  2653     5
 2648  2652  2653     5
 2649  2653  2652     5
 2649  2653  2654     5
 2652  2653  2654     5
 2653  2654  2655     5
 2653  2654  2656     5
 2655  2654  2656     5
 2654  2656  2657     5
 2654  2656  2658     5
 2657  2656  2658     5
 2648  2658  2656     5
 2648  2658  2659     5
 2656  2658  2659     5
 2658  2659  2660     5
 2647  2660  2659     5
 2647  2660  2661     5
 2659  2660  2661     5
 2645  2662  2663     5
 2645  2662  2664     5
 2645  2662  2666     5
 2663  2662  2664     5
 2663  2662  2666     5
 2664  2662  2666     5
 2662  2664  2665     5
 2642  2666  2662     5
 2642  2666  2667     5
 2642  2666  2668     5
 2662  2666  2667     5
 2662  2666  2668     5
 2667  2666  2668     5
 2666  2668  2669     5
 2668  2669  2670     5
 2668  2669  2671     5
 2668  2669  2672     5
 2670  2669  2671     5
 2670  2669  2672     5
 2671  2669  2672     5
 2669  2672  2673     5
 2672  2673  2674     5
 2672  2673  2675     5
 2672  2673  2676     5
 2674  2673  2675     5
 2674  2673  2676     5
 2675  2673  2676     5
 2673  2676  2677     5
 2673  2676  2678     5
 2673  2676  2696     5
 2677  2676  2678     5
 2677  2676  2696     5
 2678  2676  2696     5
 2676  2678  2679     5
 2678  2679  2680     5
 2678  2679  2681     5
 2678  2679  2692     5
 2680  2679  2681     5
 2680  2679  2692     5
 2681  2679  2692     5
 2679  2681  2682     5
 2679  2681  2684     5
 2682  2681  2684     5
 2681  2682  2683     5
 2681  2682  2690     5
 2683  2682  2690     5
 2681  2684  2685     5
 2681  2684  2686     5
 2685  2684  2686     5
 2684  2686  2687     5
 2684  2686  2688     5
 2687  2686  2688     5
 2686  2688  2689     5
 2686  2688  2690     5
 2689  2688  2690     5
 2682  2690  2688     5
 2682  2690  2691     5
 2688  2690  2691     5
 2679  2692  2693     5
 2679  2692  2694     5
 2679  2692  2696     5
 2693  2692  2694     5
 2693  2692  2696     5
 2694  2692  2696     5
 2692  2694  2695     5
 2676  2696  2692     5
 2676  2696  2697     5
 2676  2696  2698     5
 2692  2696  2697     5
 2692  2696  2698     5
 2697  2696  2698     5
 2696  2698  2699     5
 2698  2699  2700     5
 2698  2699  2701     5
 2698  2699  2702     5
 2700  2699  2701     5
 2700  2699  2702     5
 2701  2699  2702     5
 2699  2702  2703     5
 2702  2703  2704     5
 2702  2703  2705     5
 2702  2703  2706     5
 2704  2703  2705     5
 2704  2703  2706     5
 2705  2703  2706     5
 2703  2706  2707     5
 2703  2706  2708     5
 2703  2706  2727     5
 2707  2706  2708     5
 2707  2706  2727     5
 2708  2706  2727     5
 2706  2708  2709     5
 2708  2709  2710     5
 2708  2709  2711     5
 2708  2709  2723     5
 2710  2709  2711     5
 2710  2709  2723     5
 2711  2709  2723     5
 2709  2711  2712     5
 2709  2711  2716     5
 2712  2711  2716     5
 2711  2712  2713     5
 2711  2712  2714     5
 2713  2712  2714     5
 2712  2714  2715     5
 2712  2714  2719     5
 2715  2714  2719     5
 2711  2716  2717     5
 2711  2716  2718     5
 2717  2716  2718     5
 2716  2718  2719     5
 2714  2719  2718     5
 2714  2719  2720     5
 2718  2719  2720     5
 2719  2720  2721     5
 2719  2720  2722     5
 2721  2720  2722     5
 2709  2723  2724     5
 2709  2723  2725     5
 2709  2723  2727     5
 2724  2723  2725     5
 2724  2723  2727     5
 2725  2723  2727     5
 2723  2725  2726     5
 2706  2727  2723     5
 2706  2727  2728     5
 2706  2727  2729     5
 2723  2727  2728     5
 2723  2727  2729     5
 2728  2727  2729     5
 2727  2729  2730     5
 2729  2730  2731     5
 2729  2730  2732     5
 2729  2730  2733     5
 2731  2730  2732     5
 2731  2730  2733     5
 2732  2730  2733     5
 2730  2733  2734     5
 2733  2734  2735     5
 2733  2734  2736     5
 2733  2734  2737     5
 2735  2734  2736     5
 2735  2734  2737     5
 2736  2734  2737     5
 2734  2737  2738     5
 2734  2737  2739     5
 2734  2737  2761     5
 2738  2737  2739     5
 2738  2737  2761     5
 2739  2737  2761     5
 2737  2739  2740     5
 2739  2740  2741     5
 2739  2740  2742     5
 2739  2740  2757     5
 2741  2740  2742     5
 2741  2740  2757     5
 2742  2740  2757     5
 2740  2742  2743     5
 2740  2742  2755     5
 2743  2742  2755     5
 2742  2743  2747     5
 2742  2743  2753     5
 2747  2743  2753     5
 2745  2744  2746     5
 2745  2744  2748     5
 2746  2744  2748     5
 2743  2747  2748     5
 2744  2748  2747     5
 2744  2748  2749     5
 2747  2748  2749     5
 2748  2749  2750     5
 2748  2749  2751     5
 2750  2749  2751     5
 2749  2751  2752     5
 2749  2751  2753     5
 2752  2751  2753     5
 2743  2753  2751     5
 2743  2753  2754     5
 2751  2753  2754     5
 2753  2754  2755     5
 2742  2755  2754     5
 2742  2755  2756     5
 2754  2755  2756     5
 2740  2757  2758     5
 2740  2757  2759     5
 2740  2757  2761     5
 2758  2757  2759     5
 2758  2757  2761     5
 2759  2757  2761     5
 2757  2759  2760     5
 2737  2761  2757     5
 2737  2761  2762     5
 2737  2761  2763     5
 2757  2761  2762     5
 2757  2761  2763     5
 2762  2761  2763     5
 2761  2763  2764     5
 2763  2764  2765     5
 2763  2764  2766     5
 2763  2764  2767     5
 2765  2764  2766     5
 2765  2764  2767     5
 2766  2764  2767     5
 2764  2767  2768     5
 2767  2768  2769     5
 2767  2768  2770     5
 2767  2768  2771     5
 2769  2768  2770     5
 2769  2768  2771     5
 2770  2768  2771     5
 2768  2771  2772     5
 2768  2771  2773     5
 2768  2771  2792     5
 2772  2771  2773     5
 2772  2771  2792     5
 2773  2771  2792     5
 2771  2773  2774     5
 2773  2774  2775     5
 2773  2774  2776     5
 2773  2774  2788     5
 2775  2774  2776     5
 2775  2774  2788     5
 2776  2774  2788     5
 2774  2776  2777     5
 2774  2776  2781     5
 2777  2776  2781     5
 2776  2777  2778     5
 2776  2777  2779     5
 2778  2777  2779     5
 2777  2779  2780     5
 2777  2779  2784     5
 2780  2779  2784     5
 2776  2781  2782     5
 2776  2781  2783     5
 2782  2781  2783     5
 2781  2783  2784     5
 2779  2784  2783     5
 2779  2784  2785     5
 2783  2784  2785     5
 2784  2785  2786     5
 2784  2785  2787     5
 2786  2785  2787     5
 2774  2788  2789     5
 2774  2788  2790     5
 2774  2788  2792     5
 2789  2788  2790     5
 2789  2788  2792     5
 2790  2788  2792     5
 2788  2790  2791     5
 2771  2792  2788     5
 2771  2792  2793     5
 2771  2792  2794     5
 2788  2792  2793     5
 2788  2792  2794     5
 2793  2792  2794     5
 2792  2794  2795     5

[ dihedrals ]
; ai	aj	ak	al	funct	phi0	cp	mult
    1     2     3     4     9
    1     2     3     5     9
    1     2     3     6     9
    2     3     6     7     9
    2     3     6     8     9
    2     3     6    30     9
    4     3     6     7     9
    4     3     6     8     9
    4     3     6    30     9
    5     3     6     7     9
    5     3     6     8     9
    5     3     6    30     9
    3     6     8     9     9
    7     6     8     9     9
    3     6    30    26     9
    3     6    30    31     9
    3     6    30    32     9
    7     6    30    26     9
    7     6    30    31     9
    7     6    30    32     9
    8     6    30    26     9
    8     6    30    31     9
    8     6    30    32     9
    9     8     6    30     9
    6     8     9    10     9
    6     8     9    11     9
    6     8     9    26     9
    8     9    11    12     9
    8     9    11    24     9
   10     9    11    12     9
   10     9    11    24     9
    8     9    26    27     9
    8     9    26    28     9
    8     9    26    30     9
   10     9    26    27     9
   10     9    26    28     9
   10     9    26    30     9
   11     9    26    27     9
   11     9    26    28     9
   11     9    26    30     9
   12    11     9    26     9
   24    11     9    26     9
    9    11    12    16     9
    9    11    12    22     9
    9    11    24    23     9
    9    11    24    25     9
   12    11    24    23     9
   12    11    24    25     9
   16    12    11    24     9
   22    12    11    24     9
   11    12    16    17     9
   11    12    22    20     9
   11    12    22    23     9
   16    12    22    20     9
   16    12    22    23     9
   14    13    17    16     9
   14    13    17    18     9
   15    13    17    16     9
   15    13    17    18     9
   17    16    12    22     9
   12    16    17    13     9
   12    16    17    18     9
   13    17    18    19     9
   13    17    18    20     9
   16    17    18    19     9
   16    17    18    20     9
   17    18    20    21     9
   17    18    20    22     9
   19    18    20    21     9
   19    18    20    22     9
   18    20    22    23     9
   21    20    22    23     9
   12    22    20    18     9
   12    22    20    21     9
   12    22    23    24     9
   20    22    23    24     9
   22    23    24    25     9
   11    24    23    22     9
    9    26    28    29     9
   27    26    28    29     9
    9    26    30    31     9
    9    26    30    32     9
   27    26    30    31     9
   27    26    30    32     9
   28    26    30    31     9
   28    26    30    32     9
   29    28    26    30     9
    6    30    26     9     9
    6    30    26    27     9
    6    30    26    28     9
    6    30    32    33     9
   26    30    32    33     9
   31    30    32    33     9
   30    32    33    34     9
   30    32    33    35     9
   30    32    33    36     9
   32    33    36    37     9
   34    33    36    37     9
   35    33    36    37     9
   33    36    37    38     9
   33    36    37    39     9
   33    36    37    40     9
   36    37    40    41     9
   36    37    40    42     9
   36    37    40    61     9
   38    37    40    41     9
   38    37    40    42     9
   38    37    40    61     9
   39    37    40    41     9
   39    37    40    42     9
   39    37    40    61     9
   37    40    42    43     9
   41    40    42    43     9
   37    40    61    57     9
   37    40    61    62     9
   37    40    61    63     9
   41    40    61    57     9
   41    40    61    62     9
   41    40    61    63     9
   42    40    61    57     9
   42    40    61    62     9
   42    40    61    63     9
   43    42    40    61     9
   40    42    43    44     9
   40    42    43    45     9
   40    42    43    57     9
   42    43    45    46     9
   42    43    45    50     9
   44    43    45    46     9
   44    43    45    50     9
   42    43    57    58     9
   42    43    57    59     9
   42    43    57    61     9
   44    43    57    58     9
   44    43    57    59     9
   44    43    57    61     9
   45    43    57    58     9
   45    43    57    59     9
   45    43    57    61     9
   46    45    43    57     9
   50    45    43    57     9
   43    45    46    47     9
   43    45    46    48     9
   43    45    50    51     9
   43    45    50    52     9
   46    45    50    51     9
   46    45    50    52     9
   47    46    45    50     9
   48    46    45    50     9
   45    46    48    49     9
   45    46    48    53     9
   47    46    48    49     9
   47    46    48    53     9
   46    48    53    52     9
   46    48    53    54     9
   49    48    53    52     9
   49    48    53    54     9
   45    50    52    53     9
   51    50    52    53     9
   50    52    53    54     9
   48    53    52    50     9
   48    53    54    55     9
   48    53    54    56     9
   52    53    54    55     9
   52    53    54    56     9
   43    57    59    60     9
   58    57    59    60     9
   43    57    61    62     9
   43    57    61    63     9
   58    57    61    62     9
   58    57    61    63     9
   59    57    61    62     9
   59    57    61    63     9
   60    59    57    61     9
   40    61    57    43     9
   40    61    57    58     9
   40    61    57    59     9
   40    61    63    64     9
   57    61    63    64     9
   62    61    63    64     9
   61    63    64    65     9
   61    63    64    66     9
   61    63    64    67     9
   63    64    67    68     9
   65    64    67    68     9
   66    64    67    68     9
   64    67    68    69     9
   64    67    68    70     9
   64    67    68    71     9
   67    68    71    72     9
   67    68    71    73     9
   67    68    71    95     9
   69    68    71    72     9
   69    68    71    73     9
   69    68    71    95     9
   70    68    71    72     9
   70    68    71    73     9
   70    68    71    95     9
   68    71    73    74     9
   72    71    73    74     9
   68    71    95    91     9
   68    71    95    96     9
   68    71    95    97     9
   72    71    95    91     9
   72    71    95    96     9
   72    71    95    97     9
   73    71    95    91     9
   73    71    95    96     9
   73    71    95    97     9
   74    73    71    95     9
   71    73    74    75     9
   71    73    74    76     9
   71    73    74    91     9
   73    74    76    77     9
   73    74    76    89     9
   75    74    76    77     9
   75    74    76    89     9
   73    74    91    92     9
   73    74    91    93     9
   73    74    91    95     9
   75    74    91    92     9
   75    74    91    93     9
   75    74    91    95     9
   76    74    91    92     9
   76    74    91    93     9
   76    74    91    95     9
   77    76    74    91     9
   89    76    74    91     9
   74    76    77    81     9
   74    76    77    87     9
   74    76    89    88     9
   74    76    89    90     9
   77    76    89    88     9
   77    76    89    90     9
   81    77    76    89     9
   87    77    76    89     9
   76    77    81    82     9
   76    77    87    85     9
   76    77    87    88     9
   81    77    87    85     9
   81    77    87    88     9
   79    78    82    81     9
   79    78    82    83     9
   80    78    82    81     9
   80    78    82    83     9
   82    81    77    87     9
   77    81    82    78     9
   77    81    82    83     9
   78    82    83    84     9
   78    82    83    85     9
   81    82    83    84     9
   81    82    83    85     9
   82    83    85    86     9
   82    83    85    87     9
   84    83    85    86     9
   84    83    85    87     9
   83    85    87    88     9
   86    85    87    88     9
   77    87    85    83     9
   77    87    85    86     9
   77    87    88    89     9
   85    87    88    89     9
   87    88    89    90     9
   76    89    88    87     9
   74    91    93    94     9
   92    91    93    94     9
   74    91    95    96     9
   74    91    95    97     9
   92    91    95    96     9
   92    91    95    97     9
   93    91    95    96     9
   93    91    95    97     9
   94    93    91    95     9
   71    95    91    74     9
   71    95    91    92     9
   71    95    91    93     9
   71    95    97    98     9
   91    95    97    98     9
   96    95    97    98     9
   95    97    98    99     9
   95    97    98   100     9
   95    97    98   101     9
   97    98   101   102     9
   99    98   101   102     9
  100    98   101   102     9
   98   101   102   103     9
   98   101   102   104     9
   98   101   102   105     9
  101   102   105   106     9
  101   102   105   107     9
  101   102   105   128     9
  103   102   105   106     9
  103   102   105   107     9
  103   102   105   128     9
  104   102   105   106     9
  104   102   105   107     9
  104   102   105   128     9
  102   105   107   108     9
  106   105   107   108     9
  102   105   128   124     9
  102   105   128   129     9
  102   105   128   130     9
  106   105   128   124     9
  106   105   128   129     9
  106   105   128   130     9
  107   105   128   124     9
  107   105   128   129     9
  107   105   128   130     9
  108   107   105   128     9
  105   107   108   109     9
  105   107   108   110     9
  105   107   108   124     9
  107   108   110   113     9
  107   108   110   119     9
  109   108   110   113     9
  109   108   110   119     9
  107   108   124   125     9
  107   108   124   126     9
  107   108   124   128     9
  109   108   124   125     9
  109   108   124   126     9
  109   108   124   128     9
  110   108   124   125     9
  110   108   124   126     9
  110   108   124   128     9
  113   110   108   124     9
  119   110   108   124     9
  108   110   113   112     9
  108   110   113   114     9
  108   110   119   111     9
  108   110   119   118     9
  113   110   119   118     9
  112   111   119   118     9
  112   111   120   115     9
  112   111   120   121     9
  119   111   120   121     9
  113   112   111   119     9
  113   112   111   120     9
  111   112   113   114     9
  112   113   110   119     9
  114   113   110   119     9
  110   113   112   111     9
  116   115   120   121     9
  117   116   115   120     9
  118   116   115   120     9
  115   116   118   119     9
  117   116   118   119     9
  111   119   110   113     9
  110   119   111   112     9
  110   119   111   120     9
  118   119   111   120     9
  110   119   118   116     9
  111   119   118   116     9
  115   120   111   119     9
  111   120   115   116     9
  111   120   121   122     9
  111   120   121   123     9
  115   120   121   122     9
  115   120   121   123     9
  108   124   126   127     9
  125   124   126   127     9
  108   124   128   129     9
  108   124   128   130     9
  125   124   128   129     9
  125   124   128   130     9
  126   124   128   129     9
  126   124   128   130     9
  127   126   124   128     9
  105   128   124   108     9
  105   128   124   125     9
  105   128   124   126     9
  105   128   130   131     9
  124   128   130   131     9
  129   128   130   131     9
  128   130   131   132     9
  128   130   131   133     9
  128   130   131   134     9
  130   131   134   135     9
  132   131   134   135     9
  133   131   134   135     9
  131   134   135   136     9
  131   134   135   137     9
  131   134   135   138     9
  134   135   138   139     9
  134   135   138   140     9
  134   135   138   159     9
  136   135   138   139     9
  136   135   138   140     9
  136   135   138   159     9
  137   135   138   139     9
  137   135   138   140     9
  137   135   138   159     9
  135   138   140   141     9
  139   138   140   141     9
  135   138   159   155     9
  135   138   159   160     9
  135   138   159   161     9
  139   138   159   155     9
  139   138   159   160     9
  139   138   159   161     9
  140   138   159   155     9
  140   138   159   160     9
  140   138   159   161     9
  141   140   138   159     9
  138   140   141   142     9
  138   140   141   143     9
  138   140   141   155     9
  140   141   143   144     9
  140   141   143   148     9
  142   141   143   144     9
  142   141   143   148     9
  140   141   155   156     9
  140   141   155   157     9
  140   141   155   159     9
  142   141   155   156     9
  142   141   155   157     9
  142   141   155   159     9
  143   141   155   156     9
  143   141   155   157     9
  143   141   155   159     9
  144   143   141   155     9
  148   143   141   155     9
  141   143   144   145     9
  141   143   144   146     9
  141   143   148   149     9
  141   143   148   150     9
  144   143   148   149     9
  144   143   148   150     9
  145   144   143   148     9
  146   144   143   148     9
  143   144   146   147     9
  143   144   146   151     9
  145   144   146   147     9
  145   144   146   151     9
  144   146   151   150     9
  144   146   151   152     9
  147   146   151   150     9
  147   146   151   152     9
  143   148   150   151     9
  149   148   150   151     9
  148   150   151   152     9
  146   151   150   148     9
  146   151   152   153     9
  146   151   152   154     9
  150   151   152   153     9
  150   151   152   154     9
  141   155   157   158     9
  156   155   157   158     9
  141   155   159   160     9
  141   155   159   161     9
  156   155   159   160     9
  156   155   159   161     9
  157   155   159   160     9
  157   155   159   161     9
  158   157   155   159     9
  138   159   155   141     9
  138   159   155   156     9
  138   159   155   157     9
  138   159   161   162     9
  155   159   161   162     9
  160   159   161   162     9
  159   161   162   163     9
  159   161   162   164     9
  159   161   162   165     9
  161   162   165   166     9
  163   162   165   166     9
  164   162   165   166     9
  162   165   166   167     9
  162   165   166   168     9
  162   165   166   169     9
  165   166   169   170     9
  165   166   169   171     9
  165   166   169   189     9
  167   166   169   170     9
  167   166   169   171     9
  167   166   169   189     9
  168   166   169   170     9
  168   166   169   171     9
  168   166   169   189     9
  166   169   171   172     9
  170   169   171   172     9
  166   169   189   185     9
  166   169   189   190     9
  166   169   189   191     9
  170   169   189   185     9
  170   169   189   190     9
  170   169   189   191     9
  171   169   189   185     9
  171   169   189   190     9
  171   169   189   191     9
  172   171   169   189     9
  169   171   172   173     9
  169   171   172   174     9
  169   171   172   185     9
  171   172   174   175     9
  171   172   174   177     9
  173   172   174   175     9
  173   172   174   177     9
  171   172   185   186     9
  171   172   185   187     9
  171   172   185   189     9
  173   172   185   186     9
  173   172   185   187     9
  173   172   185   189     9
  174   172   185   186     9
  174   172   185   187     9
  174   172   185   189     9
  175   174   172   185     9
  177   174   172   185     9
  172   174   175   176     9
  172   174   175   183     9
  177   174   175   183     9
  172   174   177   178     9
  172   174   177   179     9
  175   174   177   178     9
  175   174   177   179     9
  176   175   174   177     9
  174   175   183   181     9
  174   175   183   184     9
  176   175   183   181     9
  176   175   183   184     9
  174   177   179   180     9
  174   177   179   181     9
  178   177   179   180     9
  178   177   179   181     9
  177   179   181   182     9
  177   179   181   183     9
  180   179   181   182     9
  180   179   181   183     9
  179   181   183   184     9
  182   181   183   184     9
  175   183   181   179     9
  175   183   181   182     9
  172   185   187   188     9
  186   185   187   188     9
  172   185   189   190     9
  172   185   189   191     9
  186   185   189   190     9
  186   185   189   191     9
  187   185   189   190     9
  187   185   189   191     9
  188   187   185   189     9
  169   189   185   172     9
  169   189   185   186     9
  169   189   185   187     9
  169   189   191   192     9
  185   189   191   192     9
  190   189   191   192     9
  189   191   192   193     9
  189   191   192   194     9
  189   191   192   195     9
  191   192   195   196     9
  193   192   195   196     9
  194   192   195   196     9
  192   195   196   197     9
  192   195   196   198     9
  192   195   196   199     9
  195   196   199   200     9
  195   196   199   201     9
  195   196   199   220     9
  197   196   199   200     9
  197   196   199   201     9
  197   196   199   220     9
  198   196   199   200     9
  198   196   199   201     9
  198   196   199   220     9
  196   199   201   202     9
  200   199   201   202     9
  196   199   220   216     9
  196   199   220   221     9
  196   199   220   222     9
  200   199   220   216     9
  200   199   220   221     9
  200   199   220   222     9
  201   199   220   216     9
  201   199   220   221     9
  201   199   220   222     9
  202   201   199   220     9
  199   201   202   203     9
  199   201   202   204     9
  199   201   202   216     9
  201   202   204   205     9
  201   202   204   209     9
  203   202   204   205     9
  203   202   204   209     9
  201   202   216   217     9
  201   202   216   218     9
  201   202   216   220     9
  203   202   216   217     9
  203   202   216   218     9
  203   202   216   220     9
  204   202   216   217     9
  204   202   216   218     9
  204   202   216   220     9
  205   204   202   216     9
  209   204   202   216     9
  202   204   205   206     9
  202   204   205   207     9
  202   204   209   210     9
  202   204   209   211     9
  205   204   209   210     9
  205   204   209   211     9
  206   205   204   209     9
  207   205   204   209     9
  204   205   207   208     9
  204   205   207   212     9
  206   205   207   208     9
  206   205   207   212     9
  205   207   212   211     9
  205   207   212   213     9
  208   207   212   211     9
  208   207   212   213     9
  204   209   211   212     9
  210   209   211   212     9
  209   211   212   213     9
  207   212   211   209     9
  207   212   213   214     9
  207   212   213   215     9
  211   212   213   214     9
  211   212   213   215     9
  202   216   218   219     9
  217   216   218   219     9
  202   216   220   221     9
  202   216   220   222     9
  217   216   220   221     9
  217   216   220   222     9
  218   216   220   221     9
  218   216   220   222     9
  219   218   216   220     9
  199   220   216   202     9
  199   220   216   217     9
  199   220   216   218     9
  199   220   222   223     9
  216   220   222   223     9
  221   220   222   223     9
  220   222   223   224     9
  220   222   223   225     9
  220   222   223   226     9
  222   223   226   227     9
  224   223   226   227     9
  225   223   226   227     9
  223   226   227   228     9
  223   226   227   229     9
  223   226   227   230     9
  226   227   230   231     9
  226   227   230   232     9
  226   227   230   254     9
  228   227   230   231     9
  228   227   230   232     9
  228   227   230   254     9
  229   227   230   231     9
  229   227   230   232     9
  229   227   230   254     9
  227   230   232   233     9
  231   230   232   233     9
  227   230   254   250     9
  227   230   254   255     9
  227   230   254   256     9
  231   230   254   250     9
  231   230   254   255     9
  231   230   254   256     9
  232   230   254   250     9
  232   230   254   255     9
  232   230   254   256     9
  233   232   230   254     9
  230   232   233   234     9
  230   232   233   235     9
  230   232   233   250     9
  232   233   235   236     9
  232   233   235   248     9
  234   233   235   236     9
  234   233   235   248     9
  232   233   250   251     9
  232   233   250   252     9
  232   233   250   254     9
  234   233   250   251     9
  234   233   250   252     9
  234   233   250   254     9
  235   233   250   251     9
  235   233   250   252     9
  235   233   250   254     9
  236   235   233   250     9
  248   235   233   250     9
  233   235   236   240     9
  233   235   236   246     9
  233   235   248   247     9
  233   235   248   249     9
  236   235   248   247     9
  236   235   248   249     9
  240   236   235   248     9
  246   236   235   248     9
  235   236   240   241     9
  235   236   246   244     9
  235   236   246   247     9
  240   236   246   244     9
  240   236   246   247     9
  238   237   241   240     9
  238   237   241   242     9
  239   237   241   240     9
  239   237   241   242     9
  241   240   236   246     9
  236   240   241   237     9
  236   240   241   242     9
  237   241   242   243     9
  237   241   242   244     9
  240   241   242   243     9
  240   241   242   244     9
  241   242   244   245     9
  241   242   244   246     9
  243   242   244   245     9
  243   242   244   246     9
  242   244   246   247     9
  245   244   246   247     9
  236   246   244   242     9
  236   246   244   245     9
  236   246   247   248     9
  244   246   247   248     9
  246   247   248   249     9
  235   248   247   246     9
  233   250   252   253     9
  251   250   252   253     9
  233   250   254   255     9
  233   250   254   256     9
  251   250   254   255     9
  251   250   254   256     9
  252   250   254   255     9
  252   250   254   256     9
  253   252   250   254     9
  230   254   250   233     9
  230   254   250   251     9
  230   254   250   252     9
  230   254   256   257     9
  250   254   256   257     9
  255   254   256   257     9
  254   256   257   258     9
  254   256   257   259     9
  254   256   257   260     9
  256   257   260   261     9
  258   257   260   261     9
  259   257   260   261     9
  257   260   261   262     9
  257   260   261   263     9
  257   260   261   264     9
  260   261   264   265     9
  260   261   264   266     9
  260   261   264   288     9
  262   261   264   265     9
  262   261   264   266     9
  262   261   264   288     9
  263   261   264   265     9
  263   261   264   266     9
  263   261   264   288     9
  261   264   266   267     9
  265   264   266   267     9
  261   264   288   284     9
  261   264   288   289     9
  261   264   288   290     9
  265   264   288   284     9
  265   264   288   289     9
  265   264   288   290     9
  266   264   288   284     9
  266   264   288   289     9
  266   264   288   290     9
  267   266   264   288     9
  264   266   267   268     9
  264   266   267   269     9
  264   266   267   284     9
  266   267   269   270     9
  266   267   269   282     9
  268   267   269   270     9
  268   267   269   282     9
  266   267   284   285     9
  266   267   284   286     9
  266   267   284   288     9
  268   267   284   285     9
  268   267   284   286     9
  268   267   284   288     9
  269   267   284   285     9
  269   267   284   286     9
  269   267   284   288     9
  270   269   267   284     9
  282   269   267   284     9
  267   269   270   274     9
  267   269   270   280     9
  267   269   282   281     9
  267   269   282   283     9
  270   269   282   281     9
  270   269   282   283     9
  274   270   269   282     9
  280   270   269   282     9
  269   270   274   275     9
  269   270   280   278     9
  269   270   280   281     9
  274   270   280   278     9
  274   270   280   281     9
  272   271   275   274     9
  272   271   275   276     9
  273   271   275   274     9
  273   271   275   276     9
  275   274   270   280     9
  270   274   275   271     9
  270   274   275   276     9
  271   275   276   277     9
  271   275   276   278     9
  274   275   276   277     9
  274   275   276   278     9
  275   276   278   279     9
  275   276   278   280     9
  277   276   278   279     9
  277   276   278   280     9
  276   278   280   281     9
  279   278   280   281     9
  270   280   278   276     9
  270   280   278   279     9
  270   280   281   282     9
  278   280   281   282     9
  280   281   282   283     9
  269   282   281   280     9
  267   284   286   287     9
  285   284   286   287     9
  267   284   288   289     9
  267   284   288   290     9
  285   284   288   289     9
  285   284   288   290     9
  286   284   288   289     9
  286   284   288   290     9
  287   286   284   288     9
  264   288   284   267     9
  264   288   284   285     9
  264   288   284   286     9
  264   288   290   291     9
  284   288   290   291     9
  289   288   290   291     9
  288   290   291   292     9
  288   290   291   293     9
  288   290   291   294     9
  290   291   294   295     9
  292   291   294   295     9
  293   291   294   295     9
  291   294   295   296     9
  291   294   295   297     9
  291   294   295   298     9
  294   295   298   299     9
  294   295   298   300     9
  294   295   298   322     9
  296   295   298   299     9
  296   295   298   300     9
  296   295   298   322     9
  297   295   298   299     9
  297   295   298   300     9
  297   295   298   322     9
  295   298   300   301     9
  299   298   300   301     9
  295   298   322   318     9
  295   298   322   323     9
  295   298   322   324     9
  299   298   322   318     9
  299   298   322   323     9
  299   298   322   324     9
  300   298   322   318     9
  300   298   322   323     9
  300   298   322   324     9
  301   300   298   322     9
  298   300   301   302     9
  298   300   301   303     9
  298   300   301   318     9
  300   301   303   304     9
  300   301   303   316     9
  302   301   303   304     9
  302   301   303   316     9
  300   301   318   319     9
  300   301   318   320     9
  300   301   318   322     9
  302   301   318   319     9
  302   301   318   320     9
  302   301   318   322     9
  303   301   318   319     9
  303   301   318   320     9
  303   301   318   322     9
  304   303   301   318     9
  316   303   301   318     9
  301   303   304   308     9
  301   303   304   314     9
  301   303   316   315     9
  301   303   316   317     9
  304   303   316   315     9
  304   303   316   317     9
  308   304   303   316     9
  314   304   303   316     9
  303   304   308   309     9
  303   304   314   312     9
  303   304   314   315     9
  308   304   314   312     9
  308   304   314   315     9
  306   305   309   308     9
  306   305   309   310     9
  307   305   309   308     9
  307   305   309   310     9
  309   308   304   314     9
  304   308   309   305     9
  304   308   309   310     9
  305   309   310   311     9
  305   309   310   312     9
  308   309   310   311     9
  308   309   310   312     9
  309   310   312   313     9
  309   310   312   314     9
  311   310   312   313     9
  311   310   312   314     9
  310   312   314   315     9
  313   312   314   315     9
  304   314   312   310     9
  304   314   312   313     9
  304   314   315   316     9
  312   314   315   316     9
  314   315   316   317     9
  303   316   315   314     9
  301   318   320   321     9
  319   318   320   321     9
  301   318   322   323     9
  301   318   322   324     9
  319   318   322   323     9
  319   318   322   324     9
  320   318   322   323     9
  320   318   322   324     9
  321   320   318   322     9
  298   322   318   301     9
  298   322   318   319     9
  298   322   318   320     9
  298   322   324   325     9
  318   322   324   325     9
  323   322   324   325     9
  322   324   325   326     9
  322   324   325   327     9
  322   324   325   328     9
  324   325   328   329     9
  326   325   328   329     9
  327   325   328   329     9
  325   328   329   330     9
  325   328   329   331     9
  325   328   329   332     9
  328   329   332   333     9
  328   329   332   334     9
  328   329   332   356     9
  330   329   332   333     9
  330   329   332   334     9
  330   329   332   356     9
  331   329   332   333     9
  331   329   332   334     9
  331   329   332   356     9
  329   332   334   335     9
  333   332   334   335     9
  329   332   356   352     9
  329   332   356   357     9
  329   332   356   358     9
  333   332   356   352     9
  333   332   356   357     9
  333   332   356   358     9
  334   332   356   352     9
  334   332   356   357     9
  334   332   356   358     9
  335   334   332   356     9
  332   334   335   336     9
  332   334   335   337     9
  332   334   335   352     9
  334   335   337   338     9
  334   335   337   350     9
  336   335   337   338     9
  336   335   337   350     9
  334   335   352   353     9
  334   335   352   354     9
  334   335   352   356     9
  336   335   352   353     9
  336   335   352   354     9
  336   335   352   356     9
  337   335   352   353     9
  337   335   352   354     9
  337   335   352   356     9
  338   337   335   352     9
  350   337   335   352     9
  335   337   338   342     9
  335   337   338   348     9
  335   337   350   349     9
  335   337   350   351     9
  338   337   350   349     9
  338   337   350   351     9
  342   338   337   350     9
  348   338   337   350     9
  337   338   342   343     9
  337   338   348   346     9
  337   338   348   349     9
  342   338   348   346     9
  342   338   348   349     9
  340   339   343   342     9
  340   339   343   344     9
  341   339   343   342     9
  341   339   343   344     9
  343   342   338   348     9
  338   342   343   339     9
  338   342   343   344     9
  339   343   344   345     9
  339   343   344   346     9
  342   343   344   345     9
  342   343   344   346     9
  343   344   346   347     9
  343   344   346   348     9
  345   344   346   347     9
  345   344   346   348     9
  344   346   348   349     9
  347   346   348   349     9
  338   348   346   344     9
  338   348   346   347     9
  338   348   349   350     9
  346   348   349   350     9
  348   349   350   351     9
  337   350   349   348     9
  335   352   354   355     9
  353   352   354   355     9
  335   352   356   357     9
  335   352   356   358     9
  353   352   356   357     9
  353   352   356   358     9
  354   352   356   357     9
  354   352   356   358     9
  355   354   352   356     9
  332   356   352   335     9
  332   356   352   353     9
  332   356   352   354     9
  332   356   358   359     9
  352   356   358   359     9
  357   356   358   359     9
  356   358   359   360     9
  356   358   359   361     9
  356   358   359   362     9
  358   359   362   363     9
  360   359   362   363     9
  361   359   362   363     9
  359   362   363   364     9
  359   362   363   365     9
  359   362   363   366     9
  362   363   366   367     9
  362   363   366   368     9
  362   363   366   386     9
  364   363   366   367     9
  364   363   366   368     9
  364   363   366   386     9
  365   363   366   367     9
  365   363   366   368     9
  365   363   366   386     9
  363   366   368   369     9
  367   366   368   369     9
  363   366   386   382     9
  363   366   386   387     9
  363   366   386   388     9
  367   366   386   382     9
  367   366   386   387     9
  367   366   386   388     9
  368   366   386   382     9
  368   366   386   387     9
  368   366   386   388     9
  369   368   366   386     9
  366   368   369   370     9
  366   368   369   371     9
  366   368   369   382     9
  368   369   371   372     9
  368   369   371   374     9
  370   369   371   372     9
  370   369   371   374     9
  368   369   382   383     9
  368   369   382   384     9
  368   369   382   386     9
  370   369   382   383     9
  370   369   382   384     9
  370   369   382   386     9
  371   369   382   383     9
  371   369   382   384     9
  371   369   382   386     9
  372   371   369   382     9
  374   371   369   382     9
  369   371   372   373     9
  369   371   372   380     9
  374   371   372   380     9
  369   371   374   375     9
  369   371   374   376     9
  372   371   374   375     9
  372   371   374   376     9
  373   372   371   374     9
  371   372   380   378     9
  371   372   380   381     9
  373   372   380   378     9
  373   372   380   381     9
  371   374   376   377     9
  371   374   376   378     9
  375   374   376   377     9
  375   374   376   378     9
  374   376   378   379     9
  374   376   378   380     9
  377   376   378   379     9
  377   376   378   380     9
  376   378   380   381     9
  379   378   380   381     9
  372   380   378   376     9
  372   380   378   379     9
  369   382   384   385     9
  383   382   384   385     9
  369   382   386   387     9
  369   382   386   388     9
  383   382   386   387     9
  383   382   386   388     9
  384   382   386   387     9
  384   382   386   388     9
  385   384   382   386     9
  366   386   382   369     9
  366   386   382   383     9
  366   386   382   384     9
  366   386   388   389     9
  382   386   388   389     9
  387   386   388   389     9
  386   388   389   390     9
  386   388   389   391     9
  386   388   389   392     9
  388   389   392   393     9
  390   389   392   393     9
  391   389   392   393     9
  389   392   393   394     9
  389   392   393   395     9
  389   392   393   396     9
  392   393   396   397     9
  392   393   396   398     9
  392   393   396   420     9
  394   393   396   397     9
  394   393   396   398     9
  394   393   396   420     9
  395   393   396   397     9
  395   393   396   398     9
  395   393   396   420     9
  393   396   398   399     9
  397   396   398   399     9
  393   396   420   416     9
  393   396   420   421     9
  393   396   420   422     9
  397   396   420   416     9
  397   396   420   421     9
  397   396   420   422     9
  398   396   420   416     9
  398   396   420   421     9
  398   396   420   422     9
  399   398   396   420     9
  396   398   399   400     9
  396   398   399   401     9
  396   398   399   416     9
  398   399   401   402     9
  398   399   401   414     9
  400   399   401   402     9
  400   399   401   414     9
  398   399   416   417     9
  398   399   416   418     9
  398   399   416   420     9
  400   399   416   417     9
  400   399   416   418     9
  400   399   416   420     9
  401   399   416   417     9
  401   399   416   418     9
  401   399   416   420     9
  402   401   399   416     9
  414   401   399   416     9
  399   401   402   406     9
  399   401   402   412     9
  399   401   414   413     9
  399   401   414   415     9
  402   401   414   413     9
  402   401   414   415     9
  406   402   401   414     9
  412   402   401   414     9
  401   402   406   407     9
  401   402   412   410     9
  401   402   412   413     9
  406   402   412   410     9
  406   402   412   413     9
  404   403   407   406     9
  404   403   407   408     9
  405   403   407   406     9
  405   403   407   408     9
  407   406   402   412     9
  402   406   407   403     9
  402   406   407   408     9
  403   407   408   409     9
  403   407   408   410     9
  406   407   408   409     9
  406   407   408   410     9
  407   408   410   411     9
  407   408   410   412     9
  409   408   410   411     9
  409   408   410   412     9
  408   410   412   413     9
  411   410   412   413     9
  402   412   410   408     9
  402   412   410   411     9
  402   412   413   414     9
  410   412   413   414     9
  412   413   414   415     9
  401   414   413   412     9
  399   416   418   419     9
  417   416   418   419     9
  399   416   420   421     9
  399   416   420   422     9
  417   416   420   421     9
  417   416   420   422     9
  418   416   420   421     9
  418   416   420   422     9
  419   418   416   420     9
  396   420   416   399     9
  396   420   416   417     9
  396   420   416   418     9
  396   420   422   423     9
  416   420   422   423     9
  421   420   422   423     9
  420   422   423   424     9
  420   422   423   425     9
  420   422   423   426     9
  422   423   426   427     9
  424   423   426   427     9
  425   423   426   427     9
  423   426   427   428     9
  423   426   427   429     9
  423   426   427   430     9
  426   427   430   431     9
  426   427   430   432     9
  426   427   430   451     9
  428   427   430   431     9
  428   427   430   432     9
  428   427   430   451     9
  429   427   430   431     9
  429   427   430   432     9
  429   427   430   451     9
  427   430   432   433     9
  431   430   432   433     9
  427   430   451   447     9
  427   430   451   452     9
  427   430   451   453     9
  431   430   451   447     9
  431   430   451   452     9
  431   430   451   453     9
  432   430   451   447     9
  432   430   451   452     9
  432   430   451   453     9
  433   432   430   451     9
  430   432   433   434     9
  430   432   433   435     9
  430   432   433   447     9
  432   433   435   436     9
  432   433   435   440     9
  434   433   435   436     9
  434   433   435   440     9
  432   433   447   448     9
  432   433   447   449     9
  432   433   447   451     9
  434   433   447   448     9
  434   433   447   449     9
  434   433   447   451     9
  435   433   447   448     9
  435   433   447   449     9
  435   433   447   451     9
  436   435   433   447     9
  440   435   433   447     9
  433   435   436   437     9
  433   435   436   438     9
  433   435   440   441     9
  433   435   440   442     9
  436   435   440   441     9
  436   435   440   442     9
  437   436   435   440     9
  438   436   435   440     9
  435   436   438   439     9
  435   436   438   443     9
  437   436   438   439     9
  437   436   438   443     9
  436   438   443   442     9
  436   438   443   444     9
  439   438   443   442     9
  439   438   443   444     9
  435   440   442   443     9
  441   440   442   443     9
  440   442   443   444     9
  438   443   442   440     9
  438   443   444   445     9
  438   443   444   446     9
  442   443   444   445     9
  442   443   444   446     9
  433   447   449   450     9
  448   447   449   450     9
  433   447   451   452     9
  433   447   451   453     9
  448   447   451   452     9
  448   447   451   453     9
  449   447   451   452     9
  449   447   451   453     9
  450   449   447   451     9
  430   451   447   433     9
  430   451   447   448     9
  430   451   447   449     9
  430   451   453   454     9
  447   451   453   454     9
  452   451   453   454     9
  451   453   454   455     9
  451   453   454   456     9
  451   453   454   457     9
  453   454   457   458     9
  455   454   457   458     9
  456   454   457   458     9
  454   457   458   459     9
  454   457   458   460     9
  454   457   458   461     9
  457   458   461   462     9
  457   458   461   463     9
  457   458   461   482     9
  459   458   461   462     9
  459   458   461   463     9
  459   458   461   482     9
  460   458   461   462     9
  460   458   461   463     9
  460   458   461   482     9
  458   461   463   464     9
  462   461   463   464     9
  458   461   482   478     9
  458   461   482   483     9
  458   461   482   484     9
  462   461   482   478     9
  462   461   482   483     9
  462   461   482   484     9
  463   461   482   478     9
  463   461   482   483     9
  463   461   482   484     9
  464   463   461   482     9
  461   463   464   465     9
  461   463   464   466     9
  461   463   464   478     9
  463   464   466   467     9
  463   464   466   471     9
  465   464   466   467     9
  465   464   466   471     9
  463   464   478   479     9
  463   464   478   480     9
  463   464   478   482     9
  465   464   478   479     9
  465   464   478   480     9
  465   464   478   482     9
  466   464   478   479     9
  466   464   478   480     9
  466   464   478   482     9
  467   466   464   478     9
  471   466   464   478     9
  464   466   467   468     9
  464   466   467   469     9
  464   466   471   472     9
  464   466   471   473     9
  467   466   471   472     9
  467   466   471   473     9
  468   467   466   471     9
  469   467   466   471     9
  466   467   469   470     9
  466   467   469   474     9
  468   467   469   470     9
  468   467   469   474     9
  467   469   474   473     9
  467   469   474   475     9
  470   469   474   473     9
  470   469   474   475     9
  466   471   473   474     9
  472   471   473   474     9
  471   473   474   475     9
  469   474   473   471     9
  469   474   475   476     9
  469   474   475   477     9
  473   474   475   476     9
  473   474   475   477     9
  464   478   480   481     9
  479   478   480   481     9
  464   478   482   483     9
  464   478   482   484     9
  479   478   482   483     9
  479   478   482   484     9
  480   478   482   483     9
  480   478   482   484     9
  481   480   478   482     9
  461   482   478   464     9
  461   482   478   479     9
  461   482   478   480     9
  461   482   484   485     9
  478   482   484   485     9
  483   482   484   485     9
  482   484   485   486     9
  482   484   485   487     9
  482   484   485   488     9
  484   485   488   489     9
  486   485   488   489     9
  487   485   488   489     9
  485   488   489   490     9
  485   488   489   491     9
  485   488   489   492     9
  488   489   492   493     9
  488   489   492   494     9
  488   489   492   513     9
  490   489   492   493     9
  490   489   492   494     9
  490   489   492   513     9
  491   489   492   493     9
  491   489   492   494     9
  491   489   492   513     9
  489   492   494   495     9
  493   492   494   495     9
  489   492   513   509     9
  489   492   513   514     9
  489   492   513   515     9
  493   492   513   509     9
  493   492   513   514     9
  493   492   513   515     9
  494   492   513   509     9
  494   492   513   514     9
  494   492   513   515     9
  495   494   492   513     9
  492   494   495   496     9
  492   494   495   497     9
  492   494   495   509     9
  494   495   497   498     9
  494   495   497   502     9
  496   495   497   498     9
  496   495   497   502     9
  494   495   509   510     9
  494   495   509   511     9
  494   495   509   513     9
  496   495   509   510     9
  496   495   509   511     9
  496   495   509   513     9
  497   495   509   510     9
  497   495   509   511     9
  497   495   509   513     9
  498   497   495   509     9
  502   497   495   509     9
  495   497   498   499     9
  495   497   498   500     9
  495   497   502   503     9
  495   497   502   504     9
  498   497   502   503     9
  498   497   502   504     9
  499   498   497   502     9
  500   498   497   502     9
  497   498   500   501     9
  497   498   500   505     9
  499   498   500   501     9
  499   498   500   505     9
  498   500   505   504     9
  498   500   505   506     9
  501   500   505   504     9
  501   500   505   506     9
  497   502   504   505     9
  503   502   504   505     9
  502   504   505   506     9
  500   505   504   502     9
  500   505   506   507     9
  500   505   506   508     9
  504   505   506   507     9
  504   505   506   508     9
  495   509   511   512     9
  510   509   511   512     9
  495   509   513   514     9
  495   509   513   515     9
  510   509   513   514     9
  510   509   513   515     9
  511   509   513   514     9
  511   509   513   515     9
  512   511   509   513     9
  492   513   509   495     9
  492   513   509   510     9
  492   513   509   511     9
  492   513   515   516     9
  509   513   515   516     9
  514   513   515   516     9
  513   515   516   517     9
  513   515   516   518     9
  513   515   516   519     9
  515   516   519   520     9
  517   516   519   520     9
  518   516   519   520     9
  516   519   520   521     9
  516   519   520   522     9
  516   519   520   523     9
  519   520   523   524     9
  519   520   523   525     9
  519   520   523   543     9
  521   520   523   524     9
  521   520   523   525     9
  521   520   523   543     9
  522   520   523   524     9
  522   520   523   525     9
  522   520   523   543     9
  520   523   525   526     9
  524   523   525   526     9
  520   523   543   539     9
  520   523   543   544     9
  520   523   543   545     9
  524   523   543   539     9
  524   523   543   544     9
  524   523   543   545     9
  525   523   543   539     9
  525   523   543   544     9
  525   523   543   545     9
  526   525   523   543     9
  523   525   526   527     9
  523   525   526   528     9
  523   525   526   539     9
  525   526   528   529     9
  525   526   528   531     9
  527   526   528   529     9
  527   526   528   531     9
  525   526   539   540     9
  525   526   539   541     9
  525   526   539   543     9
  527   526   539   540     9
  527   526   539   541     9
  527   526   539   543     9
  528   526   539   540     9
  528   526   539   541     9
  528   526   539   543     9
  529   528   526   539     9
  531   528   526   539     9
  526   528   529   530     9
  526   528   529   537     9
  531   528   529   537     9
  526   528   531   532     9
  526   528   531   533     9
  529   528   531   532     9
  529   528   531   533     9
  530   529   528   531     9
  528   529   537   535     9
  528   529   537   538     9
  530   529   537   535     9
  530   529   537   538     9
  528   531   533   534     9
  528   531   533   535     9
  532   531   533   534     9
  532   531   533   535     9
  531   533   535   536     9
  531   533   535   537     9
  534   533   535   536     9
  534   533   535   537     9
  533   535   537   538     9
  536   535   537   538     9
  529   537   535   533     9
  529   537   535   536     9
  526   539   541   542     9
  540   539   541   542     9
  526   539   543   544     9
  526   539   543   545     9
  540   539   543   544     9
  540   539   543   545     9
  541   539   543   544     9
  541   539   543   545     9
  542   541   539   543     9
  523   543   539   526     9
  523   543   539   540     9
  523   543   539   541     9
  523   543   545   546     9
  539   543   545   546     9
  544   543   545   546     9
  543   545   546   547     9
  543   545   546   548     9
  543   545   546   549     9
  545   546   549   550     9
  547   546   549   550     9
  548   546   549   550     9
  546   549   550   551     9
  546   549   550   552     9
  546   549   550   553     9
  549   550   553   554     9
  549   550   553   555     9
  549   550   553   574     9
  551   550   553   554     9
  551   550   553   555     9
  551   550   553   574     9
  552   550   553   554     9
  552   550   553   555     9
  552   550   553   574     9
  550   553   555   556     9
  554   553   555   556     9
  550   553   574   570     9
  550   553   574   575     9
  550   553   574   576     9
  554   553   574   570     9
  554   553   574   575     9
  554   553   574   576     9
  555   553   574   570     9
  555   553   574   575     9
  555   553   574   576     9
  556   555   553   574     9
  553   555   556   557     9
  553   555   556   558     9
  553   555   556   570     9
  555   556   558   559     9
  555   556   558   563     9
  557   556   558   559     9
  557   556   558   563     9
  555   556   570   571     9
  555   556   570   572     9
  555   556   570   574     9
  557   556   570   571     9
  557   556   570   572     9
  557   556   570   574     9
  558   556   570   571     9
  558   556   570   572     9
  558   556   570   574     9
  559   558   556   570     9
  563   558   556   570     9
  556   558   559   560     9
  556   558   559   561     9
  556   558   563   564     9
  556   558   563   565     9
  559   558   563   564     9
  559   558   563   565     9
  560   559   558   563     9
  561   559   558   563     9
  558   559   561   562     9
  558   559   561   566     9
  560   559   561   562     9
  560   559   561   566     9
  559   561   566   565     9
  559   561   566   567     9
  562   561   566   565     9
  562   561   566   567     9
  558   563   565   566     9
  564   563   565   566     9
  563   565   566   567     9
  561   566   565   563     9
  561   566   567   568     9
  561   566   567   569     9
  565   566   567   568     9
  565   566   567   569     9
  556   570   572   573     9
  571   570   572   573     9
  556   570   574   575     9
  556   570   574   576     9
  571   570   574   575     9
  571   570   574   576     9
  572   570   574   575     9
  572   570   574   576     9
  573   572   570   574     9
  553   574   570   556     9
  553   574   570   571     9
  553   574   570   572     9
  553   574   576   577     9
  570   574   576   577     9
  575   574   576   577     9
  574   576   577   578     9
  574   576   577   579     9
  574   576   577   580     9
  576   577   580   581     9
  578   577   580   581     9
  579   577   580   581     9
  577   580   581   582     9
  577   580   581   583     9
  577   580   581   584     9
  580   581   584   585     9
  580   581   584   586     9
  580   581   584   605     9
  582   581   584   585     9
  582   581   584   586     9
  582   581   584   605     9
  583   581   584   585     9
  583   581   584   586     9
  583   581   584   605     9
  581   584   586   587     9
  585   584   586   587     9
  581   584   605   601     9
  581   584   605   606     9
  581   584   605   607     9
  585   584   605   601     9
  585   584   605   606     9
  585   584   605   607     9
  586   584   605   601     9
  586   584   605   606     9
  586   584   605   607     9
  587   586   584   605     9
  584   586   587   588     9
  584   586   587   589     9
  584   586   587   601     9
  586   587   589   590     9
  586   587   589   594     9
  588   587   589   590     9
  588   587   589   594     9
  586   587   601   602     9
  586   587   601   603     9
  586   587   601   605     9
  588   587   601   602     9
  588   587   601   603     9
  588   587   601   605     9
  589   587   601   602     9
  589   587   601   603     9
  589   587   601   605     9
  590   589   587   601     9
  594   589   587   601     9
  587   589   590   591     9
  587   589   590   592     9
  587   589   594   595     9
  587   589   594   596     9
  590   589   594   595     9
  590   589   594   596     9
  591   590   589   594     9
  592   590   589   594     9
  589   590   592   593     9
  589   590   592   597     9
  591   590   592   593     9
  591   590   592   597     9
  590   592   597   596     9
  590   592   597   598     9
  593   592   597   596     9
  593   592   597   598     9
  589   594   596   597     9
  595   594   596   597     9
  594   596   597   598     9
  592   597   596   594     9
  592   597   598   599     9
  592   597   598   600     9
  596   597   598   599     9
  596   597   598   600     9
  587   601   603   604     9
  602   601   603   604     9
  587   601   605   606     9
  587   601   605   607     9
  602   601   605   606     9
  602   601   605   607     9
  603   601   605   606     9
  603   601   605   607     9
  604   603   601   605     9
  584   605   601   587     9
  584   605   601   602     9
  584   605   601   603     9
  584   605   607   608     9
  601   605   607   608     9
  606   605   607   608     9
  605   607   608   609     9
  605   607   608   610     9
  605   607   608   611     9
  607   608   611   612     9
  609   608   611   612     9
  610   608   611   612     9
  608   611   612   613     9
  608   611   612   614     9
  608   611   612   615     9
  611   612   615   616     9
  611   612   615   617     9
  611   612   615   638     9
  613   612   615   616     9
  613   612   615   617     9
  613   612   615   638     9
  614   612   615   616     9
  614   612   615   617     9
  614   612   615   638     9
  612   615   617   618     9
  616   615   617   618     9
  612   615   638   634     9
  612   615   638   639     9
  612   615   638   640     9
  616   615   638   634     9
  616   615   638   639     9
  616   615   638   640     9
  617   615   638   634     9
  617   615   638   639     9
  617   615   638   640     9
  618   617   615   638     9
  615   617   618   619     9
  615   617   618   620     9
  615   617   618   634     9
  617   618   620   623     9
  617   618   620   629     9
  619   618   620   623     9
  619   618   620   629     9
  617   618   634   635     9
  617   618   634   636     9
  617   618   634   638     9
  619   618   634   635     9
  619   618   634   636     9
  619   618   634   638     9
  620   618   634   635     9
  620   618   634   636     9
  620   618   634   638     9
  623   620   618   634     9
  629   620   618   634     9
  618   620   623   622     9
  618   620   623   624     9
  618   620   629   621     9
  618   620   629   628     9
  623   620   629   628     9
  622   621   629   628     9
  622   621   630   625     9
  622   621   630   631     9
  629   621   630   631     9
  623   622   621   629     9
  623   622   621   630     9
  621   622   623   624     9
  622   623   620   629     9
  624   623   620   629     9
  620   623   622   621     9
  626   625   630   631     9
  627   626   625   630     9
  628   626   625   630     9
  625   626   628   629     9
  627   626   628   629     9
  621   629   620   623     9
  620   629   621   622     9
  620   629   621   630     9
  628   629   621   630     9
  620   629   628   626     9
  621   629   628   626     9
  625   630   621   629     9
  621   630   625   626     9
  621   630   631   632     9
  621   630   631   633     9
  625   630   631   632     9
  625   630   631   633     9
  618   634   636   637     9
  635   634   636   637     9
  618   634   638   639     9
  618   634   638   640     9
  635   634   638   639     9
  635   634   638   640     9
  636   634   638   639     9
  636   634   638   640     9
  637   636   634   638     9
  615   638   634   618     9
  615   638   634   635     9
  615   638   634   636     9
  615   638   640   641     9
  634   638   640   641     9
  639   638   640   641     9
  638   640   641   642     9
  638   640   641   643     9
  638   640   641   644     9
  640   641   644   645     9
  642   641   644   645     9
  643   641   644   645     9
  641   644   645   646     9
  641   644   645   647     9
  641   644   645   648     9
  644   645   648   649     9
  644   645   648   650     9
  644   645   648   668     9
  646   645   648   649     9
  646   645   648   650     9
  646   645   648   668     9
  647   645   648   649     9
  647   645   648   650     9
  647   645   648   668     9
  645   648   650   651     9
  649   648   650   651     9
  645   648   668   664     9
  645   648   668   669     9
  645   648   668   670     9
  649   648   668   664     9
  649   648   668   669     9
  649   648   668   670     9
  650   648   668   664     9
  650   648   668   669     9
  650   648   668   670     9
  651   650   648   668     9
  648   650   651   652     9
  648   650   651   653     9
  648   650   651   664     9
  650   651   653   654     9
  650   651   653   656     9
  652   651   653   654     9
  652   651   653   656     9
  650   651   664   665     9
  650   651   664   666     9
  650   651   664   668     9
  652   651   664   665     9
  652   651   664   666     9
  652   651   664   668     9
  653   651   664   665     9
  653   651   664   666     9
  653   651   664   668     9
  654   653   651   664     9
  656   653   651   664     9
  651   653   654   655     9
  651   653   654   662     9
  656   653   654   662     9
  651   653   656   657     9
  651   653   656   658     9
  654   653   656   657     9
  654   653   656   658     9
  655   654   653   656     9
  653   654   662   660     9
  653   654   662   663     9
  655   654   662   660     9
  655   654   662   663     9
  653   656   658   659     9
  653   656   658   660     9
  657   656   658   659     9
  657   656   658   660     9
  656   658   660   661     9
  656   658   660   662     9
  659   658   660   661     9
  659   658   660   662     9
  658   660   662   663     9
  661   660   662   663     9
  654   662   660   658     9
  654   662   660   661     9
  651   664   666   667     9
  665   664   666   667     9
  651   664   668   669     9
  651   664   668   670     9
  665   664   668   669     9
  665   664   668   670     9
  666   664   668   669     9
  666   664   668   670     9
  667   666   664   668     9
  648   668   664   651     9
  648   668   664   665     9
  648   668   664   666     9
  648   668   670   671     9
  664   668   670   671     9
  669   668   670   671     9
  668   670   671   672     9
  668   670   671   673     9
  668   670   671   674     9
  670   671   674   675     9
  672   671   674   675     9
  673   671   674   675     9
  671   674   675   676     9
  671   674   675   677     9
  671   674   675   678     9
  674   675   678   679     9
  674   675   678   680     9
  674   675   678   698     9
  676   675   678   679     9
  676   675   678   680     9
  676   675   678   698     9
  677   675   678   679     9
  677   675   678   680     9
  677   675   678   698     9
  675   678   680   681     9
  679   678   680   681     9
  675   678   698   694     9
  675   678   698   699     9
  675   678   698   700     9
  679   678   698   694     9
  679   678   698   699     9
  679   678   698   700     9
  680   678   698   694     9
  680   678   698   699     9
  680   678   698   700     9
  681   680   678   698     9
  678   680   681   682     9
  678   680   681   683     9
  678   680   681   694     9
  680   681   683   684     9
  680   681   683   686     9
  682   681   683   684     9
  682   681   683   686     9
  680   681   694   695     9
  680   681   694   696     9
  680   681   694   698     9
  682   681   694   695     9
  682   681   694   696     9
  682   681   694   698     9
  683   681   694   695     9
  683   681   694   696     9
  683   681   694   698     9
  684   683   681   694     9
  686   683   681   694     9
  681   683   684   685     9
  681   683   684   692     9
  686   683   684   692     9
  681   683   686   687     9
  681   683   686   688     9
  684   683   686   687     9
  684   683   686   688     9
  685   684   683   686     9
  683   684   692   690     9
  683   684   692   693     9
  685   684   692   690     9
  685   684   692   693     9
  683   686   688   689     9
  683   686   688   690     9
  687   686   688   689     9
  687   686   688   690     9
  686   688   690   691     9
  686   688   690   692     9
  689   688   690   691     9
  689   688   690   692     9
  688   690   692   693     9
  691   690   692   693     9
  684   692   690   688     9
  684   692   690   691     9
  681   694   696   697     9
  695   694   696   697     9
  681   694   698   699     9
  681   694   698   700     9
  695   694   698   699     9
  695   694   698   700     9
  696   694   698   699     9
  696   694   698   700     9
  697   696   694   698     9
  678   698   694   681     9
  678   698   694   695     9
  678   698   694   696     9
  678   698   700   701     9
  694   698   700   701     9
  699   698   700   701     9
  698   700   701   702     9
  698   700   701   703     9
  698   700   701   704     9
  700   701   704   705     9
  702   701   704   705     9
  703   701   704   705     9
  701   704   705   706     9
  701   704   705   707     9
  701   704   705   708     9
  704   705   708   709     9
  704   705   708   710     9
  704   705   708   732     9
  706   705   708   709     9
  706   705   708   710     9
  706   705   708   732     9
  707   705   708   709     9
  707   705   708   710     9
  707   705   708   732     9
  705   708   710   711     9
  709   708   710   711     9
  705   708   732   728     9
  705   708   732   733     9
  705   708   732   734     9
  709   708   732   728     9
  709   708   732   733     9
  709   708   732   734     9
  710   708   732   728     9
  710   708   732   733     9
  710   708   732   734     9
  711   710   708   732     9
  708   710   711   712     9
  708   710   711   713     9
  708   710   711   728     9
  710   711   713   714     9
  710   711   713   726     9
  712   711   713   714     9
  712   711   713   726     9
  710   711   728   729     9
  710   711   728   730     9
  710   711   728   732     9
  712   711   728   729     9
  712   711   728   730     9
  712   711   728   732     9
  713   711   728   729     9
  713   711   728   730     9
  713   711   728   732     9
  714   713   711   728     9
  726   713   711   728     9
  711   713   714   718     9
  711   713   714   724     9
  711   713   726   725     9
  711   713   726   727     9
  714   713   726   725     9
  714   713   726   727     9
  718   714   713   726     9
  724   714   713   726     9
  713   714   718   719     9
  713   714   724   722     9
  713   714   724   725     9
  718   714   724   722     9
  718   714   724   725     9
  716   715   719   718     9
  716   715   719   720     9
  717   715   719   718     9
  717   715   719   720     9
  719   718   714   724     9
  714   718   719   715     9
  714   718   719   720     9
  715   719   720   721     9
  715   719   720   722     9
  718   719   720   721     9
  718   719   720   722     9
  719   720   722   723     9
  719   720   722   724     9
  721   720   722   723     9
  721   720   722   724     9
  720   722   724   725     9
  723   722   724   725     9
  714   724   722   720     9
  714   724   722   723     9
  714   724   725   726     9
  722   724   725   726     9
  724   725   726   727     9
  713   726   725   724     9
  711   728   730   731     9
  729   728   730   731     9
  711   728   732   733     9
  711   728   732   734     9
  729   728   732   733     9
  729   728   732   734     9
  730   728   732   733     9
  730   728   732   734     9
  731   730   728   732     9
  708   732   728   711     9
  708   732   728   729     9
  708   732   728   730     9
  708   732   734   735     9
  728   732   734   735     9
  733   732   734   735     9
  732   734   735   736     9
  732   734   735   737     9
  732   734   735   738     9
  734   735   738   739     9
  736   735   738   739     9
  737   735   738   739     9
  735   738   739   740     9
  735   738   739   741     9
  735   738   739   742     9
  738   739   742   743     9
  738   739   742   744     9
  738   739   742   763     9
  740   739   742   743     9
  740   739   742   744     9
  740   739   742   763     9
  741   739   742   743     9
  741   739   742   744     9
  741   739   742   763     9
  739   742   744   745     9
  743   742   744   745     9
  739   742   763   759     9
  739   742   763   764     9
  739   742   763   765     9
  743   742   763   759     9
  743   742   763   764     9
  743   742   763   765     9
  744   742   763   759     9
  744   742   763   764     9
  744   742   763   765     9
  745   744   742   763     9
  742   744   745   746     9
  742   744   745   747     9
  742   744   745   759     9
  744   745   747   748     9
  744   745   747   752     9
  746   745   747   748     9
  746   745   747   752     9
  744   745   759   760     9
  744   745   759   761     9
  744   745   759   763     9
  746   745   759   760     9
  746   745   759   761     9
  746   745   759   763     9
  747   745   759   760     9
  747   745   759   761     9
  747   745   759   763     9
  748   747   745   759     9
  752   747   745   759     9
  745   747   748   749     9
  745   747   748   750     9
  745   747   752   753     9
  745   747   752   754     9
  748   747   752   753     9
  748   747   752   754     9
  749   748   747   752     9
  750   748   747   752     9
  747   748   750   751     9
  747   748   750   755     9
  749   748   750   751     9
  749   748   750   755     9
  748   750   755   754     9
  748   750   755   756     9
  751   750   755   754     9
  751   750   755   756     9
  747   752   754   755     9
  753   752   754   755     9
  752   754   755   756     9
  750   755   754   752     9
  750   755   756   757     9
  750   755   756   758     9
  754   755   756   757     9
  754   755   756   758     9
  745   759   761   762     9
  760   759   761   762     9
  745   759   763   764     9
  745   759   763   765     9
  760   759   763   764     9
  760   759   763   765     9
  761   759   763   764     9
  761   759   763   765     9
  762   761   759   763     9
  742   763   759   745     9
  742   763   759   760     9
  742   763   759   761     9
  742   763   765   766     9
  759   763   765   766     9
  764   763   765   766     9
  763   765   766   767     9
  763   765   766   768     9
  763   765   766   769     9
  765   766   769   770     9
  767   766   769   770     9
  768   766   769   770     9
  766   769   770   771     9
  766   769   770   772     9
  766   769   770   773     9
  769   770   773   774     9
  769   770   773   775     9
  769   770   773   796     9
  771   770   773   774     9
  771   770   773   775     9
  771   770   773   796     9
  772   770   773   774     9
  772   770   773   775     9
  772   770   773   796     9
  770   773   775   776     9
  774   773   775   776     9
  770   773   796   792     9
  770   773   796   797     9
  770   773   796   798     9
  774   773   796   792     9
  774   773   796   797     9
  774   773   796   798     9
  775   773   796   792     9
  775   773   796   797     9
  775   773   796   798     9
  776   775   773   796     9
  773   775   776   777     9
  773   775   776   778     9
  773   775   776   792     9
  775   776   778   781     9
  775   776   778   787     9
  777   776   778   781     9
  777   776   778   787     9
  775   776   792   793     9
  775   776   792   794     9
  775   776   792   796     9
  777   776   792   793     9
  777   776   792   794     9
  777   776   792   796     9
  778   776   792   793     9
  778   776   792   794     9
  778   776   792   796     9
  781   778   776   792     9
  787   778   776   792     9
  776   778   781   780     9
  776   778   781   782     9
  776   778   787   779     9
  776   778   787   786     9
  781   778   787   786     9
  780   779   787   786     9
  780   779   788   783     9
  780   779   788   789     9
  787   779   788   789     9
  781   780   779   787     9
  781   780   779   788     9
  779   780   781   782     9
  780   781   778   787     9
  782   781   778   787     9
  778   781   780   779     9
  784   783   788   789     9
  785   784   783   788     9
  786   784   783   788     9
  783   784   786   787     9
  785   784   786   787     9
  779   787   778   781     9
  778   787   779   780     9
  778   787   779   788     9
  786   787   779   788     9
  778   787   786   784     9
  779   787   786   784     9
  783   788   779   787     9
  779   788   783   784     9
  779   788   789   790     9
  779   788   789   791     9
  783   788   789   790     9
  783   788   789   791     9
  776   792   794   795     9
  793   792   794   795     9
  776   792   796   797     9
  776   792   796   798     9
  793   792   796   797     9
  793   792   796   798     9
  794   792   796   797     9
  794   792   796   798     9
  795   794   792   796     9
  773   796   792   776     9
  773   796   792   793     9
  773   796   792   794     9
  773   796   798   799     9
  792   796   798   799     9
  797   796   798   799     9
  796   798   799   800     9
  796   798   799   801     9
  796   798   799   802     9
  798   799   802   803     9
  800   799   802   803     9
  801   799   802   803     9
  799   802   803   804     9
  799   802   803   805     9
  799   802   803   806     9
  802   803   806   807     9
  802   803   806   808     9
  802   803   806   827     9
  804   803   806   807     9
  804   803   806   808     9
  804   803   806   827     9
  805   803   806   807     9
  805   803   806   808     9
  805   803   806   827     9
  803   806   808   809     9
  807   806   808   809     9
  803   806   827   823     9
  803   806   827   828     9
  803   806   827   829     9
  807   806   827   823     9
  807   806   827   828     9
  807   806   827   829     9
  808   806   827   823     9
  808   806   827   828     9
  808   806   827   829     9
  809   808   806   827     9
  806   808   809   810     9
  806   808   809   811     9
  806   808   809   823     9
  808   809   811   812     9
  808   809   811   816     9
  810   809   811   812     9
  810   809   811   816     9
  808   809   823   824     9
  808   809   823   825     9
  808   809   823   827     9
  810   809   823   824     9
  810   809   823   825     9
  810   809   823   827     9
  811   809   823   824     9
  811   809   823   825     9
  811   809   823   827     9
  812   811   809   823     9
  816   811   809   823     9
  809   811   812   813     9
  809   811   812   814     9
  809   811   816   817     9
  809   811   816   818     9
  812   811   816   817     9
  812   811   816   818     9
  813   812   811   816     9
  814   812   811   816     9
  811   812   814   815     9
  811   812   814   819     9
  813   812   814   815     9
  813   812   814   819     9
  812   814   819   818     9
  812   814   819   820     9
  815   814   819   818     9
  815   814   819   820     9
  811   816   818   819     9
  817   816   818   819     9
  816   818   819   820     9
  814   819   818   816     9
  814   819   820   821     9
  814   819   820   822     9
  818   819   820   821     9
  818   819   820   822     9
  809   823   825   826     9
  824   823   825   826     9
  809   823   827   828     9
  809   823   827   829     9
  824   823   827   828     9
  824   823   827   829     9
  825   823   827   828     9
  825   823   827   829     9
  826   825   823   827     9
  806   827   823   809     9
  806   827   823   824     9
  806   827   823   825     9
  806   827   829   830     9
  823   827   829   830     9
  828   827   829   830     9
  827   829   830   831     9
  827   829   830   832     9
  827   829   830   833     9
  829   830   833   834     9
  831   830   833   834     9
  832   830   833   834     9
  830   833   834   835     9
  830   833   834   836     9
  830   833   834   837     9
  833   834   837   838     9
  833   834   837   839     9
  833   834   837   857     9
  835   834   837   838     9
  835   834   837   839     9
  835   834   837   857     9
  836   834   837   838     9
  836   834   837   839     9
  836   834   837   857     9
  834   837   839   840     9
  838   837   839   840     9
  834   837   857   853     9
  834   837   857   858     9
  834   837   857   859     9
  838   837   857   853     9
  838   837   857   858     9
  838   837   857   859     9
  839   837   857   853     9
  839   837   857   858     9
  839   837   857   859     9
  840   839   837   857     9
  837   839   840   841     9
  837   839   840   842     9
  837   839   840   853     9
  839   840   842   843     9
  839   840   842   845     9
  841   840   842   843     9
  841   840   842   845     9
  839   840   853   854     9
  839   840   853   855     9
  839   840   853   857     9
  841   840   853   854     9
  841   840   853   855     9
  841   840   853   857     9
  842   840   853   854     9
  842   840   853   855     9
  842   840   853   857     9
  843   842   840   853     9
  845   842   840   853     9
  840   842   843   844     9
  840   842   843   851     9
  845   842   843   851     9
  840   842   845   846     9
  840   842   845   847     9
  843   842   845   846     9
  843   842   845   847     9
  844   843   842   845     9
  842   843   851   849     9
  842   843   851   852     9
  844   843   851   849     9
  844   843   851   852     9
  842   845   847   848     9
  842   845   847   849     9
  846   845   847   848     9
  846   845   847   849     9
  845   847   849   850     9
  845   847   849   851     9
  848   847   849   850     9
  848   847   849   851     9
  847   849   851   852     9
  850   849   851   852     9
  843   851   849   847     9
  843   851   849   850     9
  840   853   855   856     9
  854   853   855   856     9
  840   853   857   858     9
  840   853   857   859     9
  854   853   857   858     9
  854   853   857   859     9
  855   853   857   858     9
  855   853   857   859     9
  856   855   853   857     9
  837   857   853   840     9
  837   857   853   854     9
  837   857   853   855     9
  837   857   859   860     9
  853   857   859   860     9
  858   857   859   860     9
  857   859   860   861     9
  857   859   860   862     9
  857   859   860   863     9
  859   860   863   864     9
  861   860   863   864     9
  862   860   863   864     9
  860   863   864   865     9
  860   863   864   866     9
  860   863   864   867     9
  863   864   867   868     9
  863   864   867   869     9
  863   864   867   888     9
  865   864   867   868     9
  865   864   867   869     9
  865   864   867   888     9
  866   864   867   868     9
  866   864   867   869     9
  866   864   867   888     9
  864   867   869   870     9
  868   867   869   870     9
  864   867   888   884     9
  864   867   888   889     9
  864   867   888   890     9
  868   867   888   884     9
  868   867   888   889     9
  868   867   888   890     9
  869   867   888   884     9
  869   867   888   889     9
  869   867   888   890     9
  870   869   867   888     9
  867   869   870   871     9
  867   869   870   872     9
  867   869   870   884     9
  869   870   872   873     9
  869   870   872   877     9
  871   870   872   873     9
  871   870   872   877     9
  869   870   884   885     9
  869   870   884   886     9
  869   870   884   888     9
  871   870   884   885     9
  871   870   884   886     9
  871   870   884   888     9
  872   870   884   885     9
  872   870   884   886     9
  872   870   884   888     9
  873   872   870   884     9
  877   872   870   884     9
  870   872   873   874     9
  870   872   873   875     9
  870   872   877   878     9
  870   872   877   879     9
  873   872   877   878     9
  873   872   877   879     9
  874   873   872   877     9
  875   873   872   877     9
  872   873   875   876     9
  872   873   875   880     9
  874   873   875   876     9
  874   873   875   880     9
  873   875   880   879     9
  873   875   880   881     9
  876   875   880   879     9
  876   875   880   881     9
  872   877   879   880     9
  878   877   879   880     9
  877   879   880   881     9
  875   880   879   877     9
  875   880   881   882     9
  875   880   881   883     9
  879   880   881   882     9
  879   880   881   883     9
  870   884   886   887     9
  885   884   886   887     9
  870   884   888   889     9
  870   884   888   890     9
  885   884   888   889     9
  885   884   888   890     9
  886   884   888   889     9
  886   884   888   890     9
  887   886   884   888     9
  867   888   884   870     9
  867   888   884   885     9
  867   888   884   886     9
  867   888   890   891     9
  884   888   890   891     9
  889   888   890   891     9
  888   890   891   892     9
  888   890   891   893     9
  888   890   891   894     9
  890   891   894   895     9
  892   891   894   895     9
  893   891   894   895     9
  891   894   895   896     9
  891   894   895   897     9
  891   894   895   898     9
  894   895   898   899     9
  894   895   898   900     9
  894   895   898   919     9
  896   895   898   899     9
  896   895   898   900     9
  896   895   898   919     9
  897   895   898   899     9
  897   895   898   900     9
  897   895   898   919     9
  895   898   900   901     9
  899   898   900   901     9
  895   898   919   915     9
  895   898   919   920     9
  895   898   919   921     9
  899   898   919   915     9
  899   898   919   920     9
  899   898   919   921     9
  900   898   919   915     9
  900   898   919   920     9
  900   898   919   921     9
  901   900   898   919     9
  898   900   901   902     9
  898   900   901   903     9
  898   900   901   915     9
  900   901   903   904     9
  900   901   903   908     9
  902   901   903   904     9
  902   901   903   908     9
  900   901   915   916     9
  900   901   915   917     9
  900   901   915   919     9
  902   901   915   916     9
  902   901   915   917     9
  902   901   915   919     9
  903   901   915   916     9
  903   901   915   917     9
  903   901   915   919     9
  904   903   901   915     9
  908   903   901   915     9
  901   903   904   905     9
  901   903   904   906     9
  901   903   908   909     9
  901   903   908   910     9
  904   903   908   909     9
  904   903   908   910     9
  905   904   903   908     9
  906   904   903   908     9
  903   904   906   907     9
  903   904   906   911     9
  905   904   906   907     9
  905   904   906   911     9
  904   906   911   910     9
  904   906   911   912     9
  907   906   911   910     9
  907   906   911   912     9
  903   908   910   911     9
  909   908   910   911     9
  908   910   911   912     9
  906   911   910   908     9
  906   911   912   913     9
  906   911   912   914     9
  910   911   912   913     9
  910   911   912   914     9
  901   915   917   918     9
  916   915   917   918     9
  901   915   919   920     9
  901   915   919   921     9
  916   915   919   920     9
  916   915   919   921     9
  917   915   919   920     9
  917   915   919   921     9
  918   917   915   919     9
  898   919   915   901     9
  898   919   915   916     9
  898   919   915   917     9
  898   919   921   922     9
  915   919   921   922     9
  920   919   921   922     9
  919   921   922   923     9
  919   921   922   924     9
  919   921   922   925     9
  921   922   925   926     9
  923   922   925   926     9
  924   922   925   926     9
  922   925   926   927     9
  922   925   926   928     9
  922   925   926   929     9
  925   926   929   930     9
  925   926   929   931     9
  925   926   929   953     9
  927   926   929   930     9
  927   926   929   931     9
  927   926   929   953     9
  928   926   929   930     9
  928   926   929   931     9
  928   926   929   953     9
  926   929   931   932     9
  930   929   931   932     9
  926   929   953   949     9
  926   929   953   954     9
  926   929   953   955     9
  930   929   953   949     9
  930   929   953   954     9
  930   929   953   955     9
  931   929   953   949     9
  931   929   953   954     9
  931   929   953   955     9
  932   931   929   953     9
  929   931   932   933     9
  929   931   932   934     9
  929   931   932   949     9
  931   932   934   935     9
  931   932   934   947     9
  933   932   934   935     9
  933   932   934   947     9
  931   932   949   950     9
  931   932   949   951     9
  931   932   949   953     9
  933   932   949   950     9
  933   932   949   951     9
  933   932   949   953     9
  934   932   949   950     9
  934   932   949   951     9
  934   932   949   953     9
  935   934   932   949     9
  947   934   932   949     9
  932   934   935   939     9
  932   934   935   945     9
  932   934   947   946     9
  932   934   947   948     9
  935   934   947   946     9
  935   934   947   948     9
  939   935   934   947     9
  945   935   934   947     9
  934   935   939   940     9
  934   935   945   943     9
  934   935   945   946     9
  939   935   945   943     9
  939   935   945   946     9
  937   936   940   939     9
  937   936   940   941     9
  938   936   940   939     9
  938   936   940   941     9
  940   939   935   945     9
  935   939   940   936     9
  935   939   940   941     9
  936   940   941   942     9
  936   940   941   943     9
  939   940   941   942     9
  939   940   941   943     9
  940   941   943   944     9
  940   941   943   945     9
  942   941   943   944     9
  942   941   943   945     9
  941   943   945   946     9
  944   943   945   946     9
  935   945   943   941     9
  935   945   943   944     9
  935   945   946   947     9
  943   945   946   947     9
  945   946   947   948     9
  934   947   946   945     9
  932   949   951   952     9
  950   949   951   952     9
  932   949   953   954     9
  932   949   953   955     9
  950   949   953   954     9
  950   949   953   955     9
  951   949   953   954     9
  951   949   953   955     9
  952   951   949   953     9
  929   953   949   932     9
  929   953   949   950     9
  929   953   949   951     9
  929   953   955   956     9
  949   953   955   956     9
  954   953   955   956     9
  953   955   956   957     9
  953   955   956   958     9
  953   955   956   959     9
  955   956   959   960     9
  957   956   959   960     9
  958   956   959   960     9
  956   959   960   961     9
  956   959   960   962     9
  956   959   960   963     9
  959   960   963   964     9
  959   960   963   965     9
  959   960   963   987     9
  961   960   963   964     9
  961   960   963   965     9
  961   960   963   987     9
  962   960   963   964     9
  962   960   963   965     9
  962   960   963   987     9
  960   963   965   966     9
  964   963   965   966     9
  960   963   987   983     9
  960   963   987   988     9
  960   963   987   989     9
  964   963   987   983     9
  964   963   987   988     9
  964   963   987   989     9
  965   963   987   983     9
  965   963   987   988     9
  965   963   987   989     9
  966   965   963   987     9
  963   965   966   967     9
  963   965   966   968     9
  963   965   966   983     9
  965   966   968   969     9
  965   966   968   981     9
  967   966   968   969     9
  967   966   968   981     9
  965   966   983   984     9
  965   966   983   985     9
  965   966   983   987     9
  967   966   983   984     9
  967   966   983   985     9
  967   966   983   987     9
  968   966   983   984     9
  968   966   983   985     9
  968   966   983   987     9
  969   968   966   983     9
  981   968   966   983     9
  966   968   969   973     9
  966   968   969   979     9
  966   968   981   980     9
  966   968   981   982     9
  969   968   981   980     9
  969   968   981   982     9
  973   969   968   981     9
  979   969   968   981     9
  968   969   973   974     9
  968   969   979   977     9
  968   969   979   980     9
  973   969   979   977     9
  973   969   979   980     9
  971   970   974   973     9
  971   970   974   975     9
  972   970   974   973     9
  972   970   974   975     9
  974   973   969   979     9
  969   973   974   970     9
  969   973   974   975     9
  970   974   975   976     9
  970   974   975   977     9
  973   974   975   976     9
  973   974   975   977     9
  974   975   977   978     9
  974   975   977   979     9
  976   975   977   978     9
  976   975   977   979     9
  975   977   979   980     9
  978   977   979   980     9
  969   979   977   975     9
  969   979   977   978     9
  969   979   980   981     9
  977   979   980   981     9
  979   980   981   982     9
  968   981   980   979     9
  966   983   985   986     9
  984   983   985   986     9
  966   983   987   988     9
  966   983   987   989     9
  984   983   987   988     9
  984   983   987   989     9
  985   983   987   988     9
  985   983   987   989     9
  986   985   983   987     9
  963   987   983   966     9
  963   987   983   984     9
  963   987   983   985     9
  963   987   989   990     9
  983   987   989   990     9
  988   987   989   990     9
  987   989   990   991     9
  987   989   990   992     9
  987   989   990   993     9
  989   990   993   994     9
  991   990   993   994     9
  992   990   993   994     9
  990   993   994   995     9
  990   993   994   996     9
  990   993   994   997     9
  993   994   997   998     9
  993   994   997   999     9
  993   994   997  1020     9
  995   994   997   998     9
  995   994   997   999     9
  995   994   997  1020     9
  996   994   997   998     9
  996   994   997   999     9
  996   994   997  1020     9
  994   997   999  1000     9
  998   997   999  1000     9
  994   997  1020  1016     9
  994   997  1020  1021     9
  994   997  1020  1022     9
  998   997  1020  1016     9
  998   997  1020  1021     9
  998   997  1020  1022     9
  999   997  1020  1016     9
  999   997  1020  1021     9
  999   997  1020  1022     9
 1000   999   997  1020     9
  997   999  1000  1001     9
  997   999  1000  1002     9
  997   999  1000  1016     9
  999  1000  1002  1005     9
  999  1000  1002  1011     9
 1001  1000  1002  1005     9
 1001  1000  1002  1011     9
  999  1000  1016  1017     9
  999  1000  1016  1018     9
  999  1000  1016  1020     9
 1001  1000  1016  1017     9
 1001  1000  1016  1018     9
 1001  1000  1016  1020     9
 1002  1000  1016  1017     9
 1002  1000  1016  1018     9
 1002  1000  1016  1020     9
 1005  1002  1000  1016     9
 1011  1002  1000  1016     9
 1000  1002  1005  1004     9
 1000  1002  1005  1006     9
 1000  1002  1011  1003     9
 1000  1002  1011  1010     9
 1005  1002  1011  1010     9
 1004  1003  1011  1010     9
 1004  1003  1012  1007     9
 1004  1003  1012  1013     9
 1011  1003  1012  1013     9
 1005  1004  1003  1011     9
 1005  1004  1003  1012     9
 1003  1004  1005  1006     9
 1004  1005  1002  1011     9
 1006  1005  1002  1011     9
 1002  1005  1004  1003     9
 1008  1007  1012  1013     9
 1009  1008  1007  1012     9
 1010  1008  1007  1012     9
 1007  1008  1010  1011     9
 1009  1008  1010  1011     9
 1003  1011  1002  1005     9
 1002  1011  1003  1004     9
 1002  1011  1003  1012     9
 1010  1011  1003  1012     9
 1002  1011  1010  1008     9
 1003  1011  1010  1008     9
 1007  1012  1003  1011     9
 1003  1012  1007  1008     9
 1003  1012  1013  1014     9
 1003  1012  1013  1015     9
 1007  1012  1013  1014     9
 1007  1012  1013  1015     9
 1000  1016  1018  1019     9
 1017  1016  1018  1019     9
 1000  1016  1020  1021     9
 1000  1016  1020  1022     9
 1017  1016  1020  1021     9
 1017  1016  1020  1022     9
 1018  1016  1020  1021     9
 1018  1016  1020  1022     9
 1019  1018  1016  1020     9
  997  1020  1016  1000     9
  997  1020  1016  1017     9
  997  1020  1016  1018     9
  997  1020  1022  1023     9
 1016  1020  1022  1023     9
 1021  1020  1022  1023     9
 1020  1022  1023  1024     9
 1020  1022  1023  1025     9
 1020  1022  1023  1026     9
 1022  1023  1026  1027     9
 1024  1023  1026  1027     9
 1025  1023  1026  1027     9
 1023  1026  1027  1028     9
 1023  1026  1027  1029     9
 1023  1026  1027  1030     9
 1026  1027  1030  1031     9
 1026  1027  1030  1032     9
 1026  1027  1030  1054     9
 1028  1027  1030  1031     9
 1028  1027  1030  1032     9
 1028  1027  1030  1054     9
 1029  1027  1030  1031     9
 1029  1027  1030  1032     9
 1029  1027  1030  1054     9
 1027  1030  1032  1033     9
 1031  1030  1032  1033     9
 1027  1030  1054  1050     9
 1027  1030  1054  1055     9
 1027  1030  1054  1056     9
 1031  1030  1054  1050     9
 1031  1030  1054  1055     9
 1031  1030  1054  1056     9
 1032  1030  1054  1050     9
 1032  1030  1054  1055     9
 1032  1030  1054  1056     9
 1033  1032  1030  1054     9
 1030  1032  1033  1034     9
 1030  1032  1033  1035     9
 1030  1032  1033  1050     9
 1032  1033  1035  1036     9
 1032  1033  1035  1048     9
 1034  1033  1035  1036     9
 1034  1033  1035  1048     9
 1032  1033  1050  1051     9
 1032  1033  1050  1052     9
 1032  1033  1050  1054     9
 1034  1033  1050  1051     9
 1034  1033  1050  1052     9
 1034  1033  1050  1054     9
 1035  1033  1050  1051     9
 1035  1033  1050  1052     9
 1035  1033  1050  1054     9
 1036  1035  1033  1050     9
 1048  1035  1033  1050     9
 1033  1035  1036  1040     9
 1033  1035  1036  1046     9
 1033  1035  1048  1047     9
 1033  1035  1048  1049     9
 1036  1035  1048  1047     9
 1036  1035  1048  1049     9
 1040  1036  1035  1048     9
 1046  1036  1035  1048     9
 1035  1036  1040  1041     9
 1035  1036  1046  1044     9
 1035  1036  1046  1047     9
 1040  1036  1046  1044     9
 1040  1036  1046  1047     9
 1038  1037  1041  1040     9
 1038  1037  1041  1042     9
 1039  1037  1041  1040     9
 1039  1037  1041  1042     9
 1041  1040  1036  1046     9
 1036  1040  1041  1037     9
 1036  1040  1041  1042     9
 1037  1041  1042  1043     9
 1037  1041  1042  1044     9
 1040  1041  1042  1043     9
 1040  1041  1042  1044     9
 1041  1042  1044  1045     9
 1041  1042  1044  1046     9
 1043  1042  1044  1045     9
 1043  1042  1044  1046     9
 1042  1044  1046  1047     9
 1045  1044  1046  1047     9
 1036  1046  1044  1042     9
 1036  1046  1044  1045     9
 1036  1046  1047  1048     9
 1044  1046  1047  1048     9
 1046  1047  1048  1049     9
 1035  1048  1047  1046     9
 1033  1050  1052  1053     9
 1051  1050  1052  1053     9
 1033  1050  1054  1055     9
 1033  1050  1054  1056     9
 1051  1050  1054  1055     9
 1051  1050  1054  1056     9
 1052  1050  1054  1055     9
 1052  1050  1054  1056     9
 1053  1052  1050  1054     9
 1030  1054  1050  1033     9
 1030  1054  1050  1051     9
 1030  1054  1050  1052     9
 1030  1054  1056  1057     9
 1050  1054  1056  1057     9
 1055  1054  1056  1057     9
 1054  1056  1057  1058     9
 1054  1056  1057  1059     9
 1054  1056  1057  1060     9
 1056  1057  1060  1061     9
 1058  1057  1060  1061     9
 1059  1057  1060  1061     9
 1057  1060  1061  1062     9
 1057  1060  1061  1063     9
 1057  1060  1061  1064     9
 1060  1061  1064  1065     9
 1060  1061  1064  1066     9
 1060  1061  1064  1088     9
 1062  1061  1064  1065     9
 1062  1061  1064  1066     9
 1062  1061  1064  1088     9
 1063  1061  1064  1065     9
 1063  1061  1064  1066     9
 1063  1061  1064  1088     9
 1061  1064  1066  1067     9
 1065  1064  1066  1067     9
 1061  1064  1088  1084     9
 1061  1064  1088  1089     9
 1061  1064  1088  1090     9
 1065  1064  1088  1084     9
 1065  1064  1088  1089     9
 1065  1064  1088  1090     9
 1066  1064  1088  1084     9
 1066  1064  1088  1089     9
 1066  1064  1088  1090     9
 1067  1066  1064  1088     9
 1064  1066  1067  1068     9
 1064  1066  1067  1069     9
 1064  1066  1067  1084     9
 1066  1067  1069  1070     9
 1066  1067  1069  1082     9
 1068  1067  1069  1070     9
 1068  1067  1069  1082     9
 1066  1067  1084  1085     9
 1066  1067  1084  1086     9
 1066  1067  1084  1088     9
 1068  1067  1084  1085     9
 1068  1067  1084  1086     9
 1068  1067  1084  1088     9
 1069  1067  1084  1085     9
 1069  1067  1084  1086     9
 1069  1067  1084  1088     9
 1070  1069  1067  1084     9
 1082  1069  1067  1084     9
 1067  1069  1070  1074     9
 1067  1069  1070  1080     9
 1067  1069  1082  1081     9
 1067  1069  1082  1083     9
 1070  1069  1082  1081     9
 1070  1069  1082  1083     9
 1074  1070  1069  1082     9
 1080  1070  1069  1082     9
 1069  1070  1074  1075     9
 1069  1070  1080  1078     9
 1069  1070  1080  1081     9
 1074  1070  1080  1078     9
 1074  1070  1080  1081     9
 1072  1071  1075  1074     9
 1072  1071  1075  1076     9
 1073  1071  1075  1074     9
 1073  1071  1075  1076     9
 1075  1074  1070  1080     9
 1070  1074  1075  1071     9
 1070  1074  1075  1076     9
 1071  1075  1076  1077     9
 1071  1075  1076  1078     9
 1074  1075  1076  1077     9
 1074  1075  1076  1078     9
 1075  1076  1078  1079     9
 1075  1076  1078  1080     9
 1077  1076  1078  1079     9
 1077  1076  1078  1080     9
 1076  1078  1080  1081     9
 1079  1078  1080  1081     9
 1070  1080  1078  1076     9
 1070  1080  1078  1079     9
 1070  1080  1081  1082     9
 1078  1080  1081  1082     9
 1080  1081  1082  1083     9
 1069  1082  1081  1080     9
 1067  1084  1086  1087     9
 1085  1084  1086  1087     9
 1067  1084  1088  1089     9
 1067  1084  1088  1090     9
 1085  1084  1088  1089     9
 1085  1084  1088  1090     9
 1086  1084  1088  1089     9
 1086  1084  1088  1090     9
 1087  1086  1084  1088     9
 1064  1088  1084  1067     9
 1064  1088  1084  1085     9
 1064  1088  1084  1086     9
 1064  1088  1090  1091     9
 1084  1088  1090  1091     9
 1089  1088  1090  1091     9
 1088  1090  1091  1092     9
 1088  1090  1091  1093     9
 1088  1090  1091  1094     9
 1090  1091  1094  1095     9
 1092  1091  1094  1095     9
 1093  1091  1094  1095     9
 1091  1094  1095  1096     9
 1091  1094  1095  1097     9
 1091  1094  1095  1098     9
 1094  1095  1098  1099     9
 1094  1095  1098  1100     9
 1094  1095  1098  1119     9
 1096  1095  1098  1099     9
 1096  1095  1098  1100     9
 1096  1095  1098  1119     9
 1097  1095  1098  1099     9
 1097  1095  1098  1100     9
 1097  1095  1098  1119     9
 1095  1098  1100  1101     9
 1099  1098  1100  1101     9
 1095  1098  1119  1115     9
 1095  1098  1119  1120     9
 1095  1098  1119  1121     9
 1099  1098  1119  1115     9
 1099  1098  1119  1120     9
 1099  1098  1119  1121     9
 1100  1098  1119  1115     9
 1100  1098  1119  1120     9
 1100  1098  1119  1121     9
 1101  1100  1098  1119     9
 1098  1100  1101  1102     9
 1098  1100  1101  1103     9
 1098  1100  1101  1115     9
 1100  1101  1103  1104     9
 1100  1101  1103  1108     9
 1102  1101  1103  1104     9
 1102  1101  1103  1108     9
 1100  1101  1115  1116     9
 1100  1101  1115  1117     9
 1100  1101  1115  1119     9
 1102  1101  1115  1116     9
 1102  1101  1115  1117     9
 1102  1101  1115  1119     9
 1103  1101  1115  1116     9
 1103  1101  1115  1117     9
 1103  1101  1115  1119     9
 1104  1103  1101  1115     9
 1108  1103  1101  1115     9
 1101  1103  1104  1105     9
 1101  1103  1104  1106     9
 1101  1103  1108  1109     9
 1101  1103  1108  1110     9
 1104  1103  1108  1109     9
 1104  1103  1108  1110     9
 1105  1104  1103  1108     9
 1106  1104  1103  1108     9
 1103  1104  1106  1107     9
 1103  1104  1106  1111     9
 1105  1104  1106  1107     9
 1105  1104  1106  1111     9
 1104  1106  1111  1110     9
 1104  1106  1111  1112     9
 1107  1106  1111  1110     9
 1107  1106  1111  1112     9
 1103  1108  1110  1111     9
 1109  1108  1110  1111     9
 1108  1110  1111  1112     9
 1106  1111  1110  1108     9
 1106  1111  1112  1113     9
 1106  1111  1112  1114     9
 1110  1111  1112  1113     9
 1110  1111  1112  1114     9
 1101  1115  1117  1118     9
 1116  1115  1117  1118     9
 1101  1115  1119  1120     9
 1101  1115  1119  1121     9
 1116  1115  1119  1120     9
 1116  1115  1119  1121     9
 1117  1115  1119  1120     9
 1117  1115  1119  1121     9
 1118  1117  1115  1119     9
 1098  1119  1115  1101     9
 1098  1119  1115  1116     9
 1098  1119  1115  1117     9
 1098  1119  1121  1122     9
 1115  1119  1121  1122     9
 1120  1119  1121  1122     9
 1119  1121  1122  1123     9
 1119  1121  1122  1124     9
 1119  1121  1122  1125     9
 1121  1122  1125  1126     9
 1123  1122  1125  1126     9
 1124  1122  1125  1126     9
 1122  1125  1126  1127     9
 1122  1125  1126  1128     9
 1122  1125  1126  1129     9
 1125  1126  1129  1130     9
 1125  1126  1129  1131     9
 1125  1126  1129  1149     9
 1127  1126  1129  1130     9
 1127  1126  1129  1131     9
 1127  1126  1129  1149     9
 1128  1126  1129  1130     9
 1128  1126  1129  1131     9
 1128  1126  1129  1149     9
 1126  1129  1131  1132     9
 1130  1129  1131  1132     9
 1126  1129  1149  1145     9
 1126  1129  1149  1150     9
 1126  1129  1149  1151     9
 1130  1129  1149  1145     9
 1130  1129  1149  1150     9
 1130  1129  1149  1151     9
 1131  1129  1149  1145     9
 1131  1129  1149  1150     9
 1131  1129  1149  1151     9
 1132  1131  1129  1149     9
 1129  1131  1132  1133     9
 1129  1131  1132  1134     9
 1129  1131  1132  1145     9
 1131  1132  1134  1135     9
 1131  1132  1134  1137     9
 1133  1132  1134  1135     9
 1133  1132  1134  1137     9
 1131  1132  1145  1146     9
 1131  1132  1145  1147     9
 1131  1132  1145  1149     9
 1133  1132  1145  1146     9
 1133  1132  1145  1147     9
 1133  1132  1145  1149     9
 1134  1132  1145  1146     9
 1134  1132  1145  1147     9
 1134  1132  1145  1149     9
 1135  1134  1132  1145     9
 1137  1134  1132  1145     9
 1132  1134  1135  1136     9
 1132  1134  1135  1143     9
 1137  1134  1135  1143     9
 1132  1134  1137  1138     9
 1132  1134  1137  1139     9
 1135  1134  1137  1138     9
 1135  1134  1137  1139     9
 1136  1135  1134  1137     9
 1134  1135  1143  1141     9
 1134  1135  1143  1144     9
 1136  1135  1143  1141     9
 1136  1135  1143  1144     9
 1134  1137  1139  1140     9
 1134  1137  1139  1141     9
 1138  1137  1139  1140     9
 1138  1137  1139  1141     9
 1137  1139  1141  1142     9
 1137  1139  1141  1143     9
 1140  1139  1141  1142     9
 1140  1139  1141  1143     9
 1139  1141  1143  1144     9
 1142  1141  1143  1144     9
 1135  1143  1141  1139     9
 1135  1143  1141  1142     9
 1132  1145  1147  1148     9
 1146  1145  1147  1148     9
 1132  1145  1149  1150     9
 1132  1145  1149  1151     9
 1146  1145  1149  1150     9
 1146  1145  1149  1151     9
 1147  1145  1149  1150     9
 1147  1145  1149  1151     9
 1148  1147  1145  1149     9
 1129  1149  1145  1132     9
 1129  1149  1145  1146     9
 1129  1149  1145  1147     9
 1129  1149  1151  1152     9
 1145  1149  1151  1152     9
 1150  1149  1151  1152     9
 1149  1151  1152  1153     9
 1149  1151  1152  1154     9
 1149  1151  1152  1155     9
 1151  1152  1155  1156     9
 1153  1152  1155  1156     9
 1154  1152  1155  1156     9
 1152  1155  1156  1157     9
 1152  1155  1156  1158     9
 1152  1155  1156  1159     9
 1155  1156  1159  1160     9
 1155  1156  1159  1161     9
 1155  1156  1159  1183     9
 1157  1156  1159  1160     9
 1157  1156  1159  1161     9
 1157  1156  1159  1183     9
 1158  1156  1159  1160     9
 1158  1156  1159  1161     9
 1158  1156  1159  1183     9
 1156  1159  1161  1162     9
 1160  1159  1161  1162     9
 1156  1159  1183  1179     9
 1156  1159  1183  1184     9
 1156  1159  1183  1185     9
 1160  1159  1183  1179     9
 1160  1159  1183  1184     9
 1160  1159  1183  1185     9
 1161  1159  1183  1179     9
 1161  1159  1183  1184     9
 1161  1159  1183  1185     9
 1162  1161  1159  1183     9
 1159  1161  1162  1163     9
 1159  1161  1162  1164     9
 1159  1161  1162  1179     9
 1161  1162  1164  1165     9
 1161  1162  1164  1177     9
 1163  1162  1164  1165     9
 1163  1162  1164  1177     9
 1161  1162  1179  1180     9
 1161  1162  1179  1181     9
 1161  1162  1179  1183     9
 1163  1162  1179  1180     9
 1163  1162  1179  1181     9
 1163  1162  1179  1183     9
 1164  1162  1179  1180     9
 1164  1162  1179  1181     9
 1164  1162  1179  1183     9
 1165  1164  1162  1179     9
 1177  1164  1162  1179     9
 1162  1164  1165  1169     9
 1162  1164  1165  1175     9
 1162  1164  1177  1176     9
 1162  1164  1177  1178     9
 1165  1164  1177  1176     9
 1165  1164  1177  1178     9
 1169  1165  1164  1177     9
 1175  1165  1164  1177     9
 1164  1165  1169  1170     9
 1164  1165  1175  1173     9
 1164  1165  1175  1176     9
 1169  1165  1175  1173     9
 1169  1165  1175  1176     9
 1167  1166  1170  1169     9
 1167  1166  1170  1171     9
 1168  1166  1170  1169     9
 1168  1166  1170  1171     9
 1170  1169  1165  1175     9
 1165  1169  1170  1166     9
 1165  1169  1170  1171     9
 1166  1170  1171  1172     9
 1166  1170  1171  1173     9
 1169  1170  1171  1172     9
 1169  1170  1171  1173     9
 1170  1171  1173  1174     9
 1170  1171  1173  1175     9
 1172  1171  1173  1174     9
 1172  1171  1173  1175     9
 1171  1173  1175  1176     9
 1174  1173  1175  1176     9
 1165  1175  1173  1171     9
 1165  1175  1173  1174     9
 1165  1175  1176  1177     9
 1173  1175  1176  1177     9
 1175  1176  1177  1178     9
 1164  1177  1176  1175     9
 1162  1179  1181  1182     9
 1180  1179  1181  1182     9
 1162  1179  1183  1184     9
 1162  1179  1183  1185     9
 1180  1179  1183  1184     9
 1180  1179  1183  1185     9
 1181  1179  1183  1184     9
 1181  1179  1183  1185     9
 1182  1181  1179  1183     9
 1159  1183  1179  1162     9
 1159  1183  1179  1180     9
 1159  1183  1179  1181     9
 1159  1183  1185  1186     9
 1179  1183  1185  1186     9
 1184  1183  1185  1186     9
 1183  1185  1186  1187     9
 1183  1185  1186  1188     9
 1183  1185  1186  1189     9
 1185  1186  1189  1190     9
 1187  1186  1189  1190     9
 1188  1186  1189  1190     9
 1186  1189  1190  1191     9
 1186  1189  1190  1192     9
 1186  1189  1190  1193     9
 1189  1190  1193  1194     9
 1189  1190  1193  1195     9
 1189  1190  1193  1216     9
 1191  1190  1193  1194     9
 1191  1190  1193  1195     9
 1191  1190  1193  1216     9
 1192  1190  1193  1194     9
 1192  1190  1193  1195     9
 1192  1190  1193  1216     9
 1190  1193  1195  1196     9
 1194  1193  1195  1196     9
 1190  1193  1216  1212     9
 1190  1193  1216  1217     9
 1190  1193  1216  1218     9
 1194  1193  1216  1212     9
 1194  1193  1216  1217     9
 1194  1193  1216  1218     9
 1195  1193  1216  1212     9
 1195  1193  1216  1217     9
 1195  1193  1216  1218     9
 1196  1195  1193  1216     9
 1193  1195  1196  1197     9
 1193  1195  1196  1198     9
 1193  1195  1196  1212     9
 1195  1196  1198  1201     9
 1195  1196  1198  1207     9
 1197  1196  1198  1201     9
 1197  1196  1198  1207     9
 1195  1196  1212  1213     9
 1195  1196  1212  1214     9
 1195  1196  1212  1216     9
 1197  1196  1212  1213     9
 1197  1196  1212  1214     9
 1197  1196  1212  1216     9
 1198  1196  1212  1213     9
 1198  1196  1212  1214     9
 1198  1196  1212  1216     9
 1201  1198  1196  1212     9
 1207  1198  1196  1212     9
 1196  1198  1201  1200     9
 1196  1198  1201  1202     9
 1196  1198  1207  1199     9
 1196  1198  1207  1206     9
 1201  1198  1207  1206     9
 1200  1199  1207  1206     9
 1200  1199  1208  1203     9
 1200  1199  1208  1209     9
 1207  1199  1208  1209     9
 1201  1200  1199  1207     9
 1201  1200  1199  1208     9
 1199  1200  1201  1202     9
 1200  1201  1198  1207     9
 1202  1201  1198  1207     9
 1198  1201  1200  1199     9
 1204  1203  1208  1209     9
 1205  1204  1203  1208     9
 1206  1204  1203  1208     9
 1203  1204  1206  1207     9
 1205  1204  1206  1207     9
 1199  1207  1198  1201     9
 1198  1207  1199  1200     9
 1198  1207  1199  1208     9
 1206  1207  1199  1208     9
 1198  1207  1206  1204     9
 1199  1207  1206  1204     9
 1203  1208  1199  1207     9
 1199  1208  1203  1204     9
 1199  1208  1209  1210     9
 1199  1208  1209  1211     9
 1203  1208  1209  1210     9
 1203  1208  1209  1211     9
 1196  1212  1214  1215     9
 1213  1212  1214  1215     9
 1196  1212  1216  1217     9
 1196  1212  1216  1218     9
 1213  1212  1216  1217     9
 1213  1212  1216  1218     9
 1214  1212  1216  1217     9
 1214  1212  1216  1218     9
 1215  1214  1212  1216     9
 1193  1216  1212  1196     9
 1193  1216  1212  1213     9
 1193  1216  1212  1214     9
 1193  1216  1218  1219     9
 1212  1216  1218  1219     9
 1217  1216  1218  1219     9
 1216  1218  1219  1220     9
 1216  1218  1219  1221     9
 1216  1218  1219  1222     9
 1218  1219  1222  1223     9
 1220  1219  1222  1223     9
 1221  1219  1222  1223     9
 1219  1222  1223  1224     9
 1219  1222  1223  1225     9
 1219  1222  1223  1226     9
 1222  1223  1226  1227     9
 1222  1223  1226  1228     9
 1222  1223  1226  1250     9
 1224  1223  1226  1227     9
 1224  1223  1226  1228     9
 1224  1223  1226  1250     9
 1225  1223  1226  1227     9
 1225  1223  1226  1228     9
 1225  1223  1226  1250     9
 1223  1226  1228  1229     9
 1227  1226  1228  1229     9
 1223  1226  1250  1246     9
 1223  1226  1250  1251     9
 1223  1226  1250  1252     9
 1227  1226  1250  1246     9
 1227  1226  1250  1251     9
 1227  1226  1250  1252     9
 1228  1226  1250  1246     9
 1228  1226  1250  1251     9
 1228  1226  1250  1252     9
 1229  1228  1226  1250     9
 1226  1228  1229  1230     9
 1226  1228  1229  1231     9
 1226  1228  1229  1246     9
 1228  1229  1231  1232     9
 1228  1229  1231  1244     9
 1230  1229  1231  1232     9
 1230  1229  1231  1244     9
 1228  1229  1246  1247     9
 1228  1229  1246  1248     9
 1228  1229  1246  1250     9
 1230  1229  1246  1247     9
 1230  1229  1246  1248     9
 1230  1229  1246  1250     9
 1231  1229  1246  1247     9
 1231  1229  1246  1248     9
 1231  1229  1246  1250     9
 1232  1231  1229  1246     9
 1244  1231  1229  1246     9
 1229  1231  1232  1236     9
 1229  1231  1232  1242     9
 1229  1231  1244  1243     9
 1229  1231  1244  1245     9
 1232  1231  1244  1243     9
 1232  1231  1244  1245     9
 1236  1232  1231  1244     9
 1242  1232  1231  1244     9
 1231  1232  1236  1237     9
 1231  1232  1242  1240     9
 1231  1232  1242  1243     9
 1236  1232  1242  1240     9
 1236  1232  1242  1243     9
 1234  1233  1237  1236     9
 1234  1233  1237  1238     9
 1235  1233  1237  1236     9
 1235  1233  1237  1238     9
 1237  1236  1232  1242     9
 1232  1236  1237  1233     9
 1232  1236  1237  1238     9
 1233  1237  1238  1239     9
 1233  1237  1238  1240     9
 1236  1237  1238  1239     9
 1236  1237  1238  1240     9
 1237  1238  1240  1241     9
 1237  1238  1240  1242     9
 1239  1238  1240  1241     9
 1239  1238  1240  1242     9
 1238  1240  1242  1243     9
 1241  1240  1242  1243     9
 1232  1242  1240  1238     9
 1232  1242  1240  1241     9
 1232  1242  1243  1244     9
 1240  1242  1243  1244     9
 1242  1243  1244  1245     9
 1231  1244  1243  1242     9
 1229  1246  1248  1249     9
 1247  1246  1248  1249     9
 1229  1246  1250  1251     9
 1229  1246  1250  1252     9
 1247  1246  1250  1251     9
 1247  1246  1250  1252     9
 1248  1246  1250  1251     9
 1248  1246  1250  1252     9
 1249  1248  1246  1250     9
 1226  1250  1246  1229     9
 1226  1250  1246  1247     9
 1226  1250  1246  1248     9
 1226  1250  1252  1253     9
 1246  1250  1252  1253     9
 1251  1250  1252  1253     9
 1250  1252  1253  1254     9
 1250  1252  1253  1255     9
 1250  1252  1253  1256     9
 1252  1253  1256  1257     9
 1254  1253  1256  1257     9
 1255  1253  1256  1257     9
 1253  1256  1257  1258     9
 1253  1256  1257  1259     9
 1253  1256  1257  1260     9
 1256  1257  1260  1261     9
 1256  1257  1260  1262     9
 1256  1257  1260  1283     9
 1258  1257  1260  1261     9
 1258  1257  1260  1262     9
 1258  1257  1260  1283     9
 1259  1257  1260  1261     9
 1259  1257  1260  1262     9
 1259  1257  1260  1283     9
 1257  1260  1262  1263     9
 1261  1260  1262  1263     9
 1257  1260  1283  1279     9
 1257  1260  1283  1284     9
 1257  1260  1283  1285     9
 1261  1260  1283  1279     9
 1261  1260  1283  1284     9
 1261  1260  1283  1285     9
 1262  1260  1283  1279     9
 1262  1260  1283  1284     9
 1262  1260  1283  1285     9
 1263  1262  1260  1283     9
 1260  1262  1263  1264     9
 1260  1262  1263  1265     9
 1260  1262  1263  1279     9
 1262  1263  1265  1268     9
 1262  1263  1265  1274     9
 1264  1263  1265  1268     9
 1264  1263  1265  1274     9
 1262  1263  1279  1280     9
 1262  1263  1279  1281     9
 1262  1263  1279  1283     9
 1264  1263  1279  1280     9
 1264  1263  1279  1281     9
 1264  1263  1279  1283     9
 1265  1263  1279  1280     9
 1265  1263  1279  1281     9
 1265  1263  1279  1283     9
 1268  1265  1263  1279     9
 1274  1265  1263  1279     9
 1263  1265  1268  1267     9
 1263  1265  1268  1269     9
 1263  1265  1274  1266     9
 1263  1265  1274  1273     9
 1268  1265  1274  1273     9
 1267  1266  1274  1273     9
 1267  1266  1275  1270     9
 1267  1266  1275  1276     9
 1274  1266  1275  1276     9
 1268  1267  1266  1274     9
 1268  1267  1266  1275     9
 1266  1267  1268  1269     9
 1267  1268  1265  1274     9
 1269  1268  1265  1274     9
 1265  1268  1267  1266     9
 1271  1270  1275  1276     9
 1272  1271  1270  1275     9
 1273  1271  1270  1275     9
 1270  1271  1273  1274     9
 1272  1271  1273  1274     9
 1266  1274  1265  1268     9
 1265  1274  1266  1267     9
 1265  1274  1266  1275     9
 1273  1274  1266  1275     9
 1265  1274  1273  1271     9
 1266  1274  1273  1271     9
 1270  1275  1266  1274     9
 1266  1275  1270  1271     9
 1266  1275  1276  1277     9
 1266  1275  1276  1278     9
 1270  1275  1276  1277     9
 1270  1275  1276  1278     9
 1263  1279  1281  1282     9
 1280  1279  1281  1282     9
 1263  1279  1283  1284     9
 1263  1279  1283  1285     9
 1280  1279  1283  1284     9
 1280  1279  1283  1285     9
 1281  1279  1283  1284     9
 1281  1279  1283  1285     9
 1282  1281  1279  1283     9
 1260  1283  1279  1263     9
 1260  1283  1279  1280     9
 1260  1283  1279  1281     9
 1260  1283  1285  1286     9
 1279  1283  1285  1286     9
 1284  1283  1285  1286     9
 1283  1285  1286  1287     9
 1283  1285  1286  1288     9
 1283  1285  1286  1289     9
 1285  1286  1289  1290     9
 1287  1286  1289  1290     9
 1288  1286  1289  1290     9
 1286  1289  1290  1291     9
 1286  1289  1290  1292     9
 1286  1289  1290  1293     9
 1289  1290  1293  1294     9
 1289  1290  1293  1295     9
 1289  1290  1293  1316     9
 1291  1290  1293  1294     9
 1291  1290  1293  1295     9
 1291  1290  1293  1316     9
 1292  1290  1293  1294     9
 1292  1290  1293  1295     9
 1292  1290  1293  1316     9
 1290  1293  1295  1296     9
 1294  1293  1295  1296     9
 1290  1293  1316  1312     9
 1290  1293  1316  1317     9
 1290  1293  1316  1318     9
 1294  1293  1316  1312     9
 1294  1293  1316  1317     9
 1294  1293  1316  1318     9
 1295  1293  1316  1312     9
 1295  1293  1316  1317     9
 1295  1293  1316  1318     9
 1296  1295  1293  1316     9
 1293  1295  1296  1297     9
 1293  1295  1296  1298     9
 1293  1295  1296  1312     9
 1295  1296  1298  1301     9
 1295  1296  1298  1307     9
 1297  1296  1298  1301     9
 1297  1296  1298  1307     9
 1295  1296  1312  1313     9
 1295  1296  1312  1314     9
 1295  1296  1312  1316     9
 1297  1296  1312  1313     9
 1297  1296  1312  1314     9
 1297  1296  1312  1316     9
 1298  1296  1312  1313     9
 1298  1296  1312  1314     9
 1298  1296  1312  1316     9
 1301  1298  1296  1312     9
 1307  1298  1296  1312     9
 1296  1298  1301  1300     9
 1296  1298  1301  1302     9
 1296  1298  1307  1299     9
 1296  1298  1307  1306     9
 1301  1298  1307  1306     9
 1300  1299  1307  1306     9
 1300  1299  1308  1303     9
 1300  1299  1308  1309     9
 1307  1299  1308  1309     9
 1301  1300  1299  1307     9
 1301  1300  1299  1308     9
 1299  1300  1301  1302     9
 1300  1301  1298  1307     9
 1302  1301  1298  1307     9
 1298  1301  1300  1299     9
 1304  1303  1308  1309     9
 1305  1304  1303  1308     9
 1306  1304  1303  1308     9
 1303  1304  1306  1307     9
 1305  1304  1306  1307     9
 1299  1307  1298  1301     9
 1298  1307  1299  1300     9
 1298  1307  1299  1308     9
 1306  1307  1299  1308     9
 1298  1307  1306  1304     9
 1299  1307  1306  1304     9
 1303  1308  1299  1307     9
 1299  1308  1303  1304     9
 1299  1308  1309  1310     9
 1299  1308  1309  1311     9
 1303  1308  1309  1310     9
 1303  1308  1309  1311     9
 1296  1312  1314  1315     9
 1313  1312  1314  1315     9
 1296  1312  1316  1317     9
 1296  1312  1316  1318     9
 1313  1312  1316  1317     9
 1313  1312  1316  1318     9
 1314  1312  1316  1317     9
 1314  1312  1316  1318     9
 1315  1314  1312  1316     9
 1293  1316  1312  1296     9
 1293  1316  1312  1313     9
 1293  1316  1312  1314     9
 1293  1316  1318  1319     9
 1312  1316  1318  1319     9
 1317  1316  1318  1319     9
 1316  1318  1319  1320     9
 1316  1318  1319  1321     9
 1316  1318  1319  1322     9
 1318  1319  1322  1323     9
 1320  1319  1322  1323     9
 1321  1319  1322  1323     9
 1319  1322  1323  1324     9
 1319  1322  1323  1325     9
 1319  1322  1323  1326     9
 1322  1323  1326  1327     9
 1322  1323  1326  1328     9
 1322  1323  1326  1349     9
 1324  1323  1326  1327     9
 1324  1323  1326  1328     9
 1324  1323  1326  1349     9
 1325  1323  1326  1327     9
 1325  1323  1326  1328     9
 1325  1323  1326  1349     9
 1323  1326  1328  1329     9
 1327  1326  1328  1329     9
 1323  1326  1349  1345     9
 1323  1326  1349  1350     9
 1323  1326  1349  1351     9
 1327  1326  1349  1345     9
 1327  1326  1349  1350     9
 1327  1326  1349  1351     9
 1328  1326  1349  1345     9
 1328  1326  1349  1350     9
 1328  1326  1349  1351     9
 1329  1328  1326  1349     9
 1326  1328  1329  1330     9
 1326  1328  1329  1331     9
 1326  1328  1329  1345     9
 1328  1329  1331  1334     9
 1328  1329  1331  1340     9
 1330  1329  1331  1334     9
 1330  1329  1331  1340     9
 1328  1329  1345  1346     9
 1328  1329  1345  1347     9
 1328  1329  1345  1349     9
 1330  1329  1345  1346     9
 1330  1329  1345  1347     9
 1330  1329  1345  1349     9
 1331  1329  1345  1346     9
 1331  1329  1345  1347     9
 1331  1329  1345  1349     9
 1334  1331  1329  1345     9
 1340  1331  1329  1345     9
 1329  1331  1334  1333     9
 1329  1331  1334  1335     9
 1329  1331  1340  1332     9
 1329  1331  1340  1339     9
 1334  1331  1340  1339     9
 1333  1332  1340  1339     9
 1333  1332  1341  1336     9
 1333  1332  1341  1342     9
 1340  1332  1341  1342     9
 1334  1333  1332  1340     9
 1334  1333  1332  1341     9
 1332  1333  1334  1335     9
 1333  1334  1331  1340     9
 1335  1334  1331  1340     9
 1331  1334  1333  1332     9
 1337  1336  1341  1342     9
 1338  1337  1336  1341     9
 1339  1337  1336  1341     9
 1336  1337  1339  1340     9
 1338  1337  1339  1340     9
 1332  1340  1331  1334     9
 1331  1340  1332  1333     9
 1331  1340  1332  1341     9
 1339  1340  1332  1341     9
 1331  1340  1339  1337     9
 1332  1340  1339  1337     9
 1336  1341  1332  1340     9
 1332  1341  1336  1337     9
 1332  1341  1342  1343     9
 1332  1341  1342  1344     9
 1336  1341  1342  1343     9
 1336  1341  1342  1344     9
 1329  1345  1347  1348     9
 1346  1345  1347  1348     9
 1329  1345  1349  1350     9
 1329  1345  1349  1351     9
 1346  1345  1349  1350     9
 1346  1345  1349  1351     9
 1347  1345  1349  1350     9
 1347  1345  1349  1351     9
 1348  1347  1345  1349     9
 1326  1349  1345  1329     9
 1326  1349  1345  1346     9
 1326  1349  1345  1347     9
 1326  1349  1351  1352     9
 1345  1349  1351  1352     9
 1350  1349  1351  1352     9
 1349  1351  1352  1353     9
 1349  1351  1352  1354     9
 1349  1351  1352  1355     9
 1351  1352  1355  1356     9
 1353  1352  1355  1356     9
 1354  1352  1355  1356     9
 1352  1355  1356  1357     9
 1352  1355  1356  1358     9
 1352  1355  1356  1359     9
 1355  1356  1359  1360     9
 1355  1356  1359  1361     9
 1355  1356  1359  1379     9
 1357  1356  1359  1360     9
 1357  1356  1359  1361     9
 1357  1356  1359  1379     9
 1358  1356  1359  1360     9
 1358  1356  1359  1361     9
 1358  1356  1359  1379     9
 1356  1359  1361  1362     9
 1360  1359  1361  1362     9
 1356  1359  1379  1375     9
 1356  1359  1379  1380     9
 1356  1359  1379  1381     9
 1360  1359  1379  1375     9
 1360  1359  1379  1380     9
 1360  1359  1379  1381     9
 1361  1359  1379  1375     9
 1361  1359  1379  1380     9
 1361  1359  1379  1381     9
 1362  1361  1359  1379     9
 1359  1361  1362  1363     9
 1359  1361  1362  1364     9
 1359  1361  1362  1375     9
 1361  1362  1364  1365     9
 1361  1362  1364  1367     9
 1363  1362  1364  1365     9
 1363  1362  1364  1367     9
 1361  1362  1375  1376     9
 1361  1362  1375  1377     9
 1361  1362  1375  1379     9
 1363  1362  1375  1376     9
 1363  1362  1375  1377     9
 1363  1362  1375  1379     9
 1364  1362  1375  1376     9
 1364  1362  1375  1377     9
 1364  1362  1375  1379     9
 1365  1364  1362  1375     9
 1367  1364  1362  1375     9
 1362  1364  1365  1366     9
 1362  1364  1365  1373     9
 1367  1364  1365  1373     9
 1362  1364  1367  1368     9
 1362  1364  1367  1369     9
 1365  1364  1367  1368     9
 1365  1364  1367  1369     9
 1366  1365  1364  1367     9
 1364  1365  1373  1371     9
 1364  1365  1373  1374     9
 1366  1365  1373  1371     9
 1366  1365  1373  1374     9
 1364  1367  1369  1370     9
 1364  1367  1369  1371     9
 1368  1367  1369  1370     9
 1368  1367  1369  1371     9
 1367  1369  1371  1372     9
 1367  1369  1371  1373     9
 1370  1369  1371  1372     9
 1370  1369  1371  1373     9
 1369  1371  1373  1374     9
 1372  1371  1373  1374     9
 1365  1373  1371  1369     9
 1365  1373  1371  1372     9
 1362  1375  1377  1378     9
 1376  1375  1377  1378     9
 1362  1375  1379  1380     9
 1362  1375  1379  1381     9
 1376  1375  1379  1380     9
 1376  1375  1379  1381     9
 1377  1375  1379  1380     9
 1377  1375  1379  1381     9
 1378  1377  1375  1379     9
 1359  1379  1375  1362     9
 1359  1379  1375  1376     9
 1359  1379  1375  1377     9
 1359  1379  1381  1382     9
 1375  1379  1381  1382     9
 1380  1379  1381  1382     9
 1379  1381  1382  1383     9
 1379  1381  1382  1384     9
 1379  1381  1382  1385     9
 1381  1382  1385  1386     9
 1383  1382  1385  1386     9
 1384  1382  1385  1386     9
 1382  1385  1386  1387     9
 1382  1385  1386  1388     9
 1382  1385  1386  1389     9
 1385  1386  1389  1390     9
 1385  1386  1389  1391     9
 1385  1386  1389  1412     9
 1387  1386  1389  1390     9
 1387  1386  1389  1391     9
 1387  1386  1389  1412     9
 1388  1386  1389  1390     9
 1388  1386  1389  1391     9
 1388  1386  1389  1412     9
 1386  1389  1391  1392     9
 1390  1389  1391  1392     9
 1386  1389  1412  1408     9
 1386  1389  1412  1413     9
 1386  1389  1412  1414     9
 1390  1389  1412  1408     9
 1390  1389  1412  1413     9
 1390  1389  1412  1414     9
 1391  1389  1412  1408     9
 1391  1389  1412  1413     9
 1391  1389  1412  1414     9
 1392  1391  1389  1412     9
 1389  1391  1392  1393     9
 1389  1391  1392  1394     9
 1389  1391  1392  1408     9
 1391  1392  1394  1397     9
 1391  1392  1394  1403     9
 1393  1392  1394  1397     9
 1393  1392  1394  1403     9
 1391  1392  1408  1409     9
 1391  1392  1408  1410     9
 1391  1392  1408  1412     9
 1393  1392  1408  1409     9
 1393  1392  1408  1410     9
 1393  1392  1408  1412     9
 1394  1392  1408  1409     9
 1394  1392  1408  1410     9
 1394  1392  1408  1412     9
 1397  1394  1392  1408     9
 1403  1394  1392  1408     9
 1392  1394  1397  1396     9
 1392  1394  1397  1398     9
 1392  1394  1403  1395     9
 1392  1394  1403  1402     9
 1397  1394  1403  1402     9
 1396  1395  1403  1402     9
 1396  1395  1404  1399     9
 1396  1395  1404  1405     9
 1403  1395  1404  1405     9
 1397  1396  1395  1403     9
 1397  1396  1395  1404     9
 1395  1396  1397  1398     9
 1396  1397  1394  1403     9
 1398  1397  1394  1403     9
 1394  1397  1396  1395     9
 1400  1399  1404  1405     9
 1401  1400  1399  1404     9
 1402  1400  1399  1404     9
 1399  1400  1402  1403     9
 1401  1400  1402  1403     9
 1395  1403  1394  1397     9
 1394  1403  1395  1396     9
 1394  1403  1395  1404     9
 1402  1403  1395  1404     9
 1394  1403  1402  1400     9
 1395  1403  1402  1400     9
 1399  1404  1395  1403     9
 1395  1404  1399  1400     9
 1395  1404  1405  1406     9
 1395  1404  1405  1407     9
 1399  1404  1405  1406     9
 1399  1404  1405  1407     9
 1392  1408  1410  1411     9
 1409  1408  1410  1411     9
 1392  1408  1412  1413     9
 1392  1408  1412  1414     9
 1409  1408  1412  1413     9
 1409  1408  1412  1414     9
 1410  1408  1412  1413     9
 1410  1408  1412  1414     9
 1411  1410  1408  1412     9
 1389  1412  1408  1392     9
 1389  1412  1408  1409     9
 1389  1412  1408  1410     9
 1389  1412  1414  1415     9
 1408  1412  1414  1415     9
 1413  1412  1414  1415     9
 1412  1414  1415  1416     9
 1412  1414  1415  1417     9
 1412  1414  1415  1418     9
 1414  1415  1418  1419     9
 1416  1415  1418  1419     9
 1417  1415  1418  1419     9
 1415  1418  1419  1420     9
 1415  1418  1419  1421     9
 1415  1418  1419  1422     9
 1418  1419  1422  1423     9
 1418  1419  1422  1424     9
 1418  1419  1422  1443     9
 1420  1419  1422  1423     9
 1420  1419  1422  1424     9
 1420  1419  1422  1443     9
 1421  1419  1422  1423     9
 1421  1419  1422  1424     9
 1421  1419  1422  1443     9
 1419  1422  1424  1425     9
 1423  1422  1424  1425     9
 1419  1422  1443  1439     9
 1419  1422  1443  1444     9
 1419  1422  1443  1445     9
 1423  1422  1443  1439     9
 1423  1422  1443  1444     9
 1423  1422  1443  1445     9
 1424  1422  1443  1439     9
 1424  1422  1443  1444     9
 1424  1422  1443  1445     9
 1425  1424  1422  1443     9
 1422  1424  1425  1426     9
 1422  1424  1425  1427     9
 1422  1424  1425  1439     9
 1424  1425  1427  1428     9
 1424  1425  1427  1432     9
 1426  1425  1427  1428     9
 1426  1425  1427  1432     9
 1424  1425  1439  1440     9
 1424  1425  1439  1441     9
 1424  1425  1439  1443     9
 1426  1425  1439  1440     9
 1426  1425  1439  1441     9
 1426  1425  1439  1443     9
 1427  1425  1439  1440     9
 1427  1425  1439  1441     9
 1427  1425  1439  1443     9
 1428  1427  1425  1439     9
 1432  1427  1425  1439     9
 1425  1427  1428  1429     9
 1425  1427  1428  1430     9
 1425  1427  1432  1433     9
 1425  1427  1432  1434     9
 1428  1427  1432  1433     9
 1428  1427  1432  1434     9
 1429  1428  1427  1432     9
 1430  1428  1427  1432     9
 1427  1428  1430  1431     9
 1427  1428  1430  1435     9
 1429  1428  1430  1431     9
 1429  1428  1430  1435     9
 1428  1430  1435  1434     9
 1428  1430  1435  1436     9
 1431  1430  1435  1434     9
 1431  1430  1435  1436     9
 1427  1432  1434  1435     9
 1433  1432  1434  1435     9
 1432  1434  1435  1436     9
 1430  1435  1434  1432     9
 1430  1435  1436  1437     9
 1430  1435  1436  1438     9
 1434  1435  1436  1437     9
 1434  1435  1436  1438     9
 1425  1439  1441  1442     9
 1440  1439  1441  1442     9
 1425  1439  1443  1444     9
 1425  1439  1443  1445     9
 1440  1439  1443  1444     9
 1440  1439  1443  1445     9
 1441  1439  1443  1444     9
 1441  1439  1443  1445     9
 1442  1441  1439  1443     9
 1422  1443  1439  1425     9
 1422  1443  1439  1440     9
 1422  1443  1439  1441     9
 1422  1443  1445  1446     9
 1439  1443  1445  1446     9
 1444  1443  1445  1446     9
 1443  1445  1446  1447     9
 1443  1445  1446  1448     9
 1443  1445  1446  1449     9
 1445  1446  1449  1450     9
 1447  1446  1449  1450     9
 1448  1446  1449  1450     9
 1446  1449  1450  1451     9
 1446  1449  1450  1452     9
 1446  1449  1450  1453     9
 1449  1450  1453  1454     9
 1449  1450  1453  1455     9
 1449  1450  1453  1474     9
 1451  1450  1453  1454     9
 1451  1450  1453  1455     9
 1451  1450  1453  1474     9
 1452  1450  1453  1454     9
 1452  1450  1453  1455     9
 1452  1450  1453  1474     9
 1450  1453  1455  1456     9
 1454  1453  1455  1456     9
 1450  1453  1474  1470     9
 1450  1453  1474  1475     9
 1450  1453  1474  1476     9
 1454  1453  1474  1470     9
 1454  1453  1474  1475     9
 1454  1453  1474  1476     9
 1455  1453  1474  1470     9
 1455  1453  1474  1475     9
 1455  1453  1474  1476     9
 1456  1455  1453  1474     9
 1453  1455  1456  1457     9
 1453  1455  1456  1458     9
 1453  1455  1456  1470     9
 1455  1456  1458  1459     9
 1455  1456  1458  1463     9
 1457  1456  1458  1459     9
 1457  1456  1458  1463     9
 1455  1456  1470  1471     9
 1455  1456  1470  1472     9
 1455  1456  1470  1474     9
 1457  1456  1470  1471     9
 1457  1456  1470  1472     9
 1457  1456  1470  1474     9
 1458  1456  1470  1471     9
 1458  1456  1470  1472     9
 1458  1456  1470  1474     9
 1459  1458  1456  1470     9
 1463  1458  1456  1470     9
 1456  1458  1459  1460     9
 1456  1458  1459  1461     9
 1456  1458  1463  1464     9
 1456  1458  1463  1465     9
 1459  1458  1463  1464     9
 1459  1458  1463  1465     9
 1460  1459  1458  1463     9
 1461  1459  1458  1463     9
 1458  1459  1461  1462     9
 1458  1459  1461  1466     9
 1460  1459  1461  1462     9
 1460  1459  1461  1466     9
 1459  1461  1466  1465     9
 1459  1461  1466  1467     9
 1462  1461  1466  1465     9
 1462  1461  1466  1467     9
 1458  1463  1465  1466     9
 1464  1463  1465  1466     9
 1463  1465  1466  1467     9
 1461  1466  1465  1463     9
 1461  1466  1467  1468     9
 1461  1466  1467  1469     9
 1465  1466  1467  1468     9
 1465  1466  1467  1469     9
 1456  1470  1472  1473     9
 1471  1470  1472  1473     9
 1456  1470  1474  1475     9
 1456  1470  1474  1476     9
 1471  1470  1474  1475     9
 1471  1470  1474  1476     9
 1472  1470  1474  1475     9
 1472  1470  1474  1476     9
 1473  1472  1470  1474     9
 1453  1474  1470  1456     9
 1453  1474  1470  1471     9
 1453  1474  1470  1472     9
 1453  1474  1476  1477     9
 1470  1474  1476  1477     9
 1475  1474  1476  1477     9
 1474  1476  1477  1478     9
 1474  1476  1477  1479     9
 1474  1476  1477  1480     9
 1476  1477  1480  1481     9
 1478  1477  1480  1481     9
 1479  1477  1480  1481     9
 1477  1480  1481  1482     9
 1477  1480  1481  1483     9
 1477  1480  1481  1484     9
 1480  1481  1484  1485     9
 1480  1481  1484  1486     9
 1480  1481  1484  1505     9
 1482  1481  1484  1485     9
 1482  1481  1484  1486     9
 1482  1481  1484  1505     9
 1483  1481  1484  1485     9
 1483  1481  1484  1486     9
 1483  1481  1484  1505     9
 1481  1484  1486  1487     9
 1485  1484  1486  1487     9
 1481  1484  1505  1501     9
 1481  1484  1505  1506     9
 1481  1484  1505  1507     9
 1485  1484  1505  1501     9
 1485  1484  1505  1506     9
 1485  1484  1505  1507     9
 1486  1484  1505  1501     9
 1486  1484  1505  1506     9
 1486  1484  1505  1507     9
 1487  1486  1484  1505     9
 1484  1486  1487  1488     9
 1484  1486  1487  1489     9
 1484  1486  1487  1501     9
 1486  1487  1489  1490     9
 1486  1487  1489  1494     9
 1488  1487  1489  1490     9
 1488  1487  1489  1494     9
 1486  1487  1501  1502     9
 1486  1487  1501  1503     9
 1486  1487  1501  1505     9
 1488  1487  1501  1502     9
 1488  1487  1501  1503     9
 1488  1487  1501  1505     9
 1489  1487  1501  1502     9
 1489  1487  1501  1503     9
 1489  1487  1501  1505     9
 1490  1489  1487  1501     9
 1494  1489  1487  1501     9
 1487  1489  1490  1491     9
 1487  1489  1490  1492     9
 1487  1489  1494  1495     9
 1487  1489  1494  1496     9
 1490  1489  1494  1495     9
 1490  1489  1494  1496     9
 1491  1490  1489  1494     9
 1492  1490  1489  1494     9
 1489  1490  1492  1493     9
 1489  1490  1492  1497     9
 1491  1490  1492  1493     9
 1491  1490  1492  1497     9
 1490  1492  1497  1496     9
 1490  1492  1497  1498     9
 1493  1492  1497  1496     9
 1493  1492  1497  1498     9
 1489  1494  1496  1497     9
 1495  1494  1496  1497     9
 1494  1496  1497  1498     9
 1492  1497  1496  1494     9
 1492  1497  1498  1499     9
 1492  1497  1498  1500     9
 1496  1497  1498  1499     9
 1496  1497  1498  1500     9
 1487  1501  1503  1504     9
 1502  1501  1503  1504     9
 1487  1501  1505  1506     9
 1487  1501  1505  1507     9
 1502  1501  1505  1506     9
 1502  1501  1505  1507     9
 1503  1501  1505  1506     9
 1503  1501  1505  1507     9
 1504  1503  1501  1505     9
 1484  1505  1501  1487     9
 1484  1505  1501  1502     9
 1484  1505  1501  1503     9
 1484  1505  1507  1508     9
 1501  1505  1507  1508     9
 1506  1505  1507  1508     9
 1505  1507  1508  1509     9
 1505  1507  1508  1510     9
 1505  1507  1508  1511     9
 1507  1508  1511  1512     9
 1509  1508  1511  1512     9
 1510  1508  1511  1512     9
 1508  1511  1512  1513     9
 1508  1511  1512  1514     9
 1508  1511  1512  1515     9
 1511  1512  1515  1516     9
 1511  1512  1515  1517     9
 1511  1512  1515  1539     9
 1513  1512  1515  1516     9
 1513  1512  1515  1517     9
 1513  1512  1515  1539     9
 1514  1512  1515  1516     9
 1514  1512  1515  1517     9
 1514  1512  1515  1539     9
 1512  1515  1517  1518     9
 1516  1515  1517  1518     9
 1512  1515  1539  1535     9
 1512  1515  1539  1540     9
 1512  1515  1539  1541     9
 1516  1515  1539  1535     9
 1516  1515  1539  1540     9
 1516  1515  1539  1541     9
 1517  1515  1539  1535     9
 1517  1515  1539  1540     9
 1517  1515  1539  1541     9
 1518  1517  1515  1539     9
 1515  1517  1518  1519     9
 1515  1517  1518  1520     9
 1515  1517  1518  1535     9
 1517  1518  1520  1521     9
 1517  1518  1520  1533     9
 1519  1518  1520  1521     9
 1519  1518  1520  1533     9
 1517  1518  1535  1536     9
 1517  1518  1535  1537     9
 1517  1518  1535  1539     9
 1519  1518  1535  1536     9
 1519  1518  1535  1537     9
 1519  1518  1535  1539     9
 1520  1518  1535  1536     9
 1520  1518  1535  1537     9
 1520  1518  1535  1539     9
 1521  1520  1518  1535     9
 1533  1520  1518  1535     9
 1518  1520  1521  1525     9
 1518  1520  1521  1531     9
 1518  1520  1533  1532     9
 1518  1520  1533  1534     9
 1521  1520  1533  1532     9
 1521  1520  1533  1534     9
 1525  1521  1520  1533     9
 1531  1521  1520  1533     9
 1520  1521  1525  1526     9
 1520  1521  1531  1529     9
 1520  1521  1531  1532     9
 1525  1521  1531  1529     9
 1525  1521  1531  1532     9
 1523  1522  1526  1525     9
 1523  1522  1526  1527     9
 1524  1522  1526  1525     9
 1524  1522  1526  1527     9
 1526  1525  1521  1531     9
 1521  1525  1526  1522     9
 1521  1525  1526  1527     9
 1522  1526  1527  1528     9
 1522  1526  1527  1529     9
 1525  1526  1527  1528     9
 1525  1526  1527  1529     9
 1526  1527  1529  1530     9
 1526  1527  1529  1531     9
 1528  1527  1529  1530     9
 1528  1527  1529  1531     9
 1527  1529  1531  1532     9
 1530  1529  1531  1532     9
 1521  1531  1529  1527     9
 1521  1531  1529  1530     9
 1521  1531  1532  1533     9
 1529  1531  1532  1533     9
 1531  1532  1533  1534     9
 1520  1533  1532  1531     9
 1518  1535  1537  1538     9
 1536  1535  1537  1538     9
 1518  1535  1539  1540     9
 1518  1535  1539  1541     9
 1536  1535  1539  1540     9
 1536  1535  1539  1541     9
 1537  1535  1539  1540     9
 1537  1535  1539  1541     9
 1538  1537  1535  1539     9
 1515  1539  1535  1518     9
 1515  1539  1535  1536     9
 1515  1539  1535  1537     9
 1515  1539  1541  1542     9
 1535  1539  1541  1542     9
 1540  1539  1541  1542     9
 1539  1541  1542  1543     9
 1539  1541  1542  1544     9
 1539  1541  1542  1545     9
 1541  1542  1545  1546     9
 1543  1542  1545  1546     9
 1544  1542  1545  1546     9
 1542  1545  1546  1547     9
 1542  1545  1546  1548     9
 1542  1545  1546  1549     9
 1545  1546  1549  1550     9
 1545  1546  1549  1551     9
 1545  1546  1549  1569     9
 1547  1546  1549  1550     9
 1547  1546  1549  1551     9
 1547  1546  1549  1569     9
 1548  1546  1549  1550     9
 1548  1546  1549  1551     9
 1548  1546  1549  1569     9
 1546  1549  1551  1552     9
 1550  1549  1551  1552     9
 1546  1549  1569  1565     9
 1546  1549  1569  1570     9
 1546  1549  1569  1571     9
 1550  1549  1569  1565     9
 1550  1549  1569  1570     9
 1550  1549  1569  1571     9
 1551  1549  1569  1565     9
 1551  1549  1569  1570     9
 1551  1549  1569  1571     9
 1552  1551  1549  1569     9
 1549  1551  1552  1553     9
 1549  1551  1552  1554     9
 1549  1551  1552  1565     9
 1551  1552  1554  1555     9
 1551  1552  1554  1557     9
 1553  1552  1554  1555     9
 1553  1552  1554  1557     9
 1551  1552  1565  1566     9
 1551  1552  1565  1567     9
 1551  1552  1565  1569     9
 1553  1552  1565  1566     9
 1553  1552  1565  1567     9
 1553  1552  1565  1569     9
 1554  1552  1565  1566     9
 1554  1552  1565  1567     9
 1554  1552  1565  1569     9
 1555  1554  1552  1565     9
 1557  1554  1552  1565     9
 1552  1554  1555  1556     9
 1552  1554  1555  1563     9
 1557  1554  1555  1563     9
 1552  1554  1557  1558     9
 1552  1554  1557  1559     9
 1555  1554  1557  1558     9
 1555  1554  1557  1559     9
 1556  1555  1554  1557     9
 1554  1555  1563  1561     9
 1554  1555  1563  1564     9
 1556  1555  1563  1561     9
 1556  1555  1563  1564     9
 1554  1557  1559  1560     9
 1554  1557  1559  1561     9
 1558  1557  1559  1560     9
 1558  1557  1559  1561     9
 1557  1559  1561  1562     9
 1557  1559  1561  1563     9
 1560  1559  1561  1562     9
 1560  1559  1561  1563     9
 1559  1561  1563  1564     9
 1562  1561  1563  1564     9
 1555  1563  1561  1559     9
 1555  1563  1561  1562     9
 1552  1565  1567  1568     9
 1566  1565  1567  1568     9
 1552  1565  1569  1570     9
 1552  1565  1569  1571     9
 1566  1565  1569  1570     9
 1566  1565  1569  1571     9
 1567  1565  1569  1570     9
 1567  1565  1569  1571     9
 1568  1567  1565  1569     9
 1549  1569  1565  1552     9
 1549  1569  1565  1566     9
 1549  1569  1565  1567     9
 1549  1569  1571  1572     9
 1565  1569  1571  1572     9
 1570  1569  1571  1572     9
 1569  1571  1572  1573     9
 1569  1571  1572  1574     9
 1569  1571  1572  1575     9
 1571  1572  1575  1576     9
 1573  1572  1575  1576     9
 1574  1572  1575  1576     9
 1572  1575  1576  1577     9
 1572  1575  1576  1578     9
 1572  1575  1576  1579     9
 1575  1576  1579  1580     9
 1575  1576  1579  1581     9
 1575  1576  1579  1602     9
 1577  1576  1579  1580     9
 1577  1576  1579  1581     9
 1577  1576  1579  1602     9
 1578  1576  1579  1580     9
 1578  1576  1579  1581     9
 1578  1576  1579  1602     9
 1576  1579  1581  1582     9
 1580  1579  1581  1582     9
 1576  1579  1602  1598     9
 1576  1579  1602  1603     9
 1576  1579  1602  1604     9
 1580  1579  1602  1598     9
 1580  1579  1602  1603     9
 1580  1579  1602  1604     9
 1581  1579  1602  1598     9
 1581  1579  1602  1603     9
 1581  1579  1602  1604     9
 1582  1581  1579  1602     9
 1579  1581  1582  1583     9
 1579  1581  1582  1584     9
 1579  1581  1582  1598     9
 1581  1582  1584  1587     9
 1581  1582  1584  1593     9
 1583  1582  1584  1587     9
 1583  1582  1584  1593     9
 1581  1582  1598  1599     9
 1581  1582  1598  1600     9
 1581  1582  1598  1602     9
 1583  1582  1598  1599     9
 1583  1582  1598  1600     9
 1583  1582  1598  1602     9
 1584  1582  1598  1599     9
 1584  1582  1598  1600     9
 1584  1582  1598  1602     9
 1587  1584  1582  1598     9
 1593  1584  1582  1598     9
 1582  1584  1587  1586     9
 1582  1584  1587  1588     9
 1582  1584  1593  1585     9
 1582  1584  1593  1592     9
 1587  1584  1593  1592     9
 1586  1585  1593  1592     9
 1586  1585  1594  1589     9
 1586  1585  1594  1595     9
 1593  1585  1594  1595     9
 1587  1586  1585  1593     9
 1587  1586  1585  1594     9
 1585  1586  1587  1588     9
 1586  1587  1584  1593     9
 1588  1587  1584  1593     9
 1584  1587  1586  1585     9
 1590  1589  1594  1595     9
 1591  1590  1589  1594     9
 1592  1590  1589  1594     9
 1589  1590  1592  1593     9
 1591  1590  1592  1593     9
 1585  1593  1584  1587     9
 1584  1593  1585  1586     9
 1584  1593  1585  1594     9
 1592  1593  1585  1594     9
 1584  1593  1592  1590     9
 1585  1593  1592  1590     9
 1589  1594  1585  1593     9
 1585  1594  1589  1590     9
 1585  1594  1595  1596     9
 1585  1594  1595  1597     9
 1589  1594  1595  1596     9
 1589  1594  1595  1597     9
 1582  1598  1600  1601     9
 1599  1598  1600  1601     9
 1582  1598  1602  1603     9
 1582  1598  1602  1604     9
 1599  1598  1602  1603     9
 1599  1598  1602  1604     9
 1600  1598  1602  1603     9
 1600  1598  1602  1604     9
 1601  1600  1598  1602     9
 1579  1602  1598  1582     9
 1579  1602  1598  1599     9
 1579  1602  1598  1600     9
 1579  1602  1604  1605     9
 1598  1602  1604  1605     9
 1603  1602  1604  1605     9
 1602  1604  1605  1606     9
 1602  1604  1605  1607     9
 1602  1604  1605  1608     9
 1604  1605  1608  1609     9
 1606  1605  1608  1609     9
 1607  1605  1608  1609     9
 1605  1608  1609  1610     9
 1605  1608  1609  1611     9
 1605  1608  1609  1612     9
 1608  1609  1612  1613     9
 1608  1609  1612  1614     9
 1608  1609  1612  1632     9
 1610  1609  1612  1613     9
 1610  1609  1612  1614     9
 1610  1609  1612  1632     9
 1611  1609  1612  1613     9
 1611  1609  1612  1614     9
 1611  1609  1612  1632     9
 1609  1612  1614  1615     9
 1613  1612  1614  1615     9
 1609  1612  1632  1628     9
 1609  1612  1632  1633     9
 1609  1612  1632  1634     9
 1613  1612  1632  1628     9
 1613  1612  1632  1633     9
 1613  1612  1632  1634     9
 1614  1612  1632  1628     9
 1614  1612  1632  1633     9
 1614  1612  1632  1634     9
 1615  1614  1612  1632     9
 1612  1614  1615  1616     9
 1612  1614  1615  1617     9
 1612  1614  1615  1628     9
 1614  1615  1617  1618     9
 1614  1615  1617  1620     9
 1616  1615  1617  1618     9
 1616  1615  1617  1620     9
 1614  1615  1628  1629     9
 1614  1615  1628  1630     9
 1614  1615  1628  1632     9
 1616  1615  1628  1629     9
 1616  1615  1628  1630     9
 1616  1615  1628  1632     9
 1617  1615  1628  1629     9
 1617  1615  1628  1630     9
 1617  1615  1628  1632     9
 1618  1617  1615  1628     9
 1620  1617  1615  1628     9
 1615  1617  1618  1619     9
 1615  1617  1618  1626     9
 1620  1617  1618  1626     9
 1615  1617  1620  1621     9
 1615  1617  1620  1622     9
 1618  1617  1620  1621     9
 1618  1617  1620  1622     9
 1619  1618  1617  1620     9
 1617  1618  1626  1624     9
 1617  1618  1626  1627     9
 1619  1618  1626  1624     9
 1619  1618  1626  1627     9
 1617  1620  1622  1623     9
 1617  1620  1622  1624     9
 1621  1620  1622  1623     9
 1621  1620  1622  1624     9
 1620  1622  1624  1625     9
 1620  1622  1624  1626     9
 1623  1622  1624  1625     9
 1623  1622  1624  1626     9
 1622  1624  1626  1627     9
 1625  1624  1626  1627     9
 1618  1626  1624  1622     9
 1618  1626  1624  1625     9
 1615  1628  1630  1631     9
 1629  1628  1630  1631     9
 1615  1628  1632  1633     9
 1615  1628  1632  1634     9
 1629  1628  1632  1633     9
 1629  1628  1632  1634     9
 1630  1628  1632  1633     9
 1630  1628  1632  1634     9
 1631  1630  1628  1632     9
 1612  1632  1628  1615     9
 1612  1632  1628  1629     9
 1612  1632  1628  1630     9
 1612  1632  1634  1635     9
 1628  1632  1634  1635     9
 1633  1632  1634  1635     9
 1632  1634  1635  1636     9
 1632  1634  1635  1637     9
 1632  1634  1635  1638     9
 1634  1635  1638  1639     9
 1636  1635  1638  1639     9
 1637  1635  1638  1639     9
 1635  1638  1639  1640     9
 1635  1638  1639  1641     9
 1635  1638  1639  1642     9
 1638  1639  1642  1643     9
 1638  1639  1642  1644     9
 1638  1639  1642  1663     9
 1640  1639  1642  1643     9
 1640  1639  1642  1644     9
 1640  1639  1642  1663     9
 1641  1639  1642  1643     9
 1641  1639  1642  1644     9
 1641  1639  1642  1663     9
 1639  1642  1644  1645     9
 1643  1642  1644  1645     9
 1639  1642  1663  1659     9
 1639  1642  1663  1664     9
 1639  1642  1663  1665     9
 1643  1642  1663  1659     9
 1643  1642  1663  1664     9
 1643  1642  1663  1665     9
 1644  1642  1663  1659     9
 1644  1642  1663  1664     9
 1644  1642  1663  1665     9
 1645  1644  1642  1663     9
 1642  1644  1645  1646     9
 1642  1644  1645  1647     9
 1642  1644  1645  1659     9
 1644  1645  1647  1648     9
 1644  1645  1647  1652     9
 1646  1645  1647  1648     9
 1646  1645  1647  1652     9
 1644  1645  1659  1660     9
 1644  1645  1659  1661     9
 1644  1645  1659  1663     9
 1646  1645  1659  1660     9
 1646  1645  1659  1661     9
 1646  1645  1659  1663     9
 1647  1645  1659  1660     9
 1647  1645  1659  1661     9
 1647  1645  1659  1663     9
 1648  1647  1645  1659     9
 1652  1647  1645  1659     9
 1645  1647  1648  1649     9
 1645  1647  1648  1650     9
 1645  1647  1652  1653     9
 1645  1647  1652  1654     9
 1648  1647  1652  1653     9
 1648  1647  1652  1654     9
 1649  1648  1647  1652     9
 1650  1648  1647  1652     9
 1647  1648  1650  1651     9
 1647  1648  1650  1655     9
 1649  1648  1650  1651     9
 1649  1648  1650  1655     9
 1648  1650  1655  1654     9
 1648  1650  1655  1656     9
 1651  1650  1655  1654     9
 1651  1650  1655  1656     9
 1647  1652  1654  1655     9
 1653  1652  1654  1655     9
 1652  1654  1655  1656     9
 1650  1655  1654  1652     9
 1650  1655  1656  1657     9
 1650  1655  1656  1658     9
 1654  1655  1656  1657     9
 1654  1655  1656  1658     9
 1645  1659  1661  1662     9
 1660  1659  1661  1662     9
 1645  1659  1663  1664     9
 1645  1659  1663  1665     9
 1660  1659  1663  1664     9
 1660  1659  1663  1665     9
 1661  1659  1663  1664     9
 1661  1659  1663  1665     9
 1662  1661  1659  1663     9
 1642  1663  1659  1645     9
 1642  1663  1659  1660     9
 1642  1663  1659  1661     9
 1642  1663  1665  1666     9
 1659  1663  1665  1666     9
 1664  1663  1665  1666     9
 1663  1665  1666  1667     9
 1663  1665  1666  1668     9
 1663  1665  1666  1669     9
 1665  1666  1669  1670     9
 1667  1666  1669  1670     9
 1668  1666  1669  1670     9
 1666  1669  1670  1671     9
 1666  1669  1670  1672     9
 1666  1669  1670  1673     9
 1669  1670  1673  1674     9
 1669  1670  1673  1675     9
 1669  1670  1673  1696     9
 1671  1670  1673  1674     9
 1671  1670  1673  1675     9
 1671  1670  1673  1696     9
 1672  1670  1673  1674     9
 1672  1670  1673  1675     9
 1672  1670  1673  1696     9
 1670  1673  1675  1676     9
 1674  1673  1675  1676     9
 1670  1673  1696  1692     9
 1670  1673  1696  1697     9
 1670  1673  1696  1698     9
 1674  1673  1696  1692     9
 1674  1673  1696  1697     9
 1674  1673  1696  1698     9
 1675  1673  1696  1692     9
 1675  1673  1696  1697     9
 1675  1673  1696  1698     9
 1676  1675  1673  1696     9
 1673  1675  1676  1677     9
 1673  1675  1676  1678     9
 1673  1675  1676  1692     9
 1675  1676  1678  1681     9
 1675  1676  1678  1687     9
 1677  1676  1678  1681     9
 1677  1676  1678  1687     9
 1675  1676  1692  1693     9
 1675  1676  1692  1694     9
 1675  1676  1692  1696     9
 1677  1676  1692  1693     9
 1677  1676  1692  1694     9
 1677  1676  1692  1696     9
 1678  1676  1692  1693     9
 1678  1676  1692  1694     9
 1678  1676  1692  1696     9
 1681  1678  1676  1692     9
 1687  1678  1676  1692     9
 1676  1678  1681  1680     9
 1676  1678  1681  1682     9
 1676  1678  1687  1679     9
 1676  1678  1687  1686     9
 1681  1678  1687  1686     9
 1680  1679  1687  1686     9
 1680  1679  1688  1683     9
 1680  1679  1688  1689     9
 1687  1679  1688  1689     9
 1681  1680  1679  1687     9
 1681  1680  1679  1688     9
 1679  1680  1681  1682     9
 1680  1681  1678  1687     9
 1682  1681  1678  1687     9
 1678  1681  1680  1679     9
 1684  1683  1688  1689     9
 1685  1684  1683  1688     9
 1686  1684  1683  1688     9
 1683  1684  1686  1687     9
 1685  1684  1686  1687     9
 1679  1687  1678  1681     9
 1678  1687  1679  1680     9
 1678  1687  1679  1688     9
 1686  1687  1679  1688     9
 1678  1687  1686  1684     9
 1679  1687  1686  1684     9
 1683  1688  1679  1687     9
 1679  1688  1683  1684     9
 1679  1688  1689  1690     9
 1679  1688  1689  1691     9
 1683  1688  1689  1690     9
 1683  1688  1689  1691     9
 1676  1692  1694  1695     9
 1693  1692  1694  1695     9
 1676  1692  1696  1697     9
 1676  1692  1696  1698     9
 1693  1692  1696  1697     9
 1693  1692  1696  1698     9
 1694  1692  1696  1697     9
 1694  1692  1696  1698     9
 1695  1694  1692  1696     9
 1673  1696  1692  1676     9
 1673  1696  1692  1693     9
 1673  1696  1692  1694     9
 1673  1696  1698  1699     9
 1692  1696  1698  1699     9
 1697  1696  1698  1699     9
 1696  1698  1699  1700     9
 1696  1698  1699  1701     9
 1696  1698  1699  1702     9
 1698  1699  1702  1703     9
 1700  1699  1702  1703     9
 1701  1699  1702  1703     9
 1699  1702  1703  1704     9
 1699  1702  1703  1705     9
 1699  1702  1703  1706     9
 1702  1703  1706  1707     9
 1702  1703  1706  1708     9
 1702  1703  1706  1727     9
 1704  1703  1706  1707     9
 1704  1703  1706  1708     9
 1704  1703  1706  1727     9
 1705  1703  1706  1707     9
 1705  1703  1706  1708     9
 1705  1703  1706  1727     9
 1703  1706  1708  1709     9
 1707  1706  1708  1709     9
 1703  1706  1727  1723     9
 1703  1706  1727  1728     9
 1703  1706  1727  1729     9
 1707  1706  1727  1723     9
 1707  1706  1727  1728     9
 1707  1706  1727  1729     9
 1708  1706  1727  1723     9
 1708  1706  1727  1728     9
 1708  1706  1727  1729     9
 1709  1708  1706  1727     9
 1706  1708  1709  1710     9
 1706  1708  1709  1711     9
 1706  1708  1709  1723     9
 1708  1709  1711  1712     9
 1708  1709  1711  1716     9
 1710  1709  1711  1712     9
 1710  1709  1711  1716     9
 1708  1709  1723  1724     9
 1708  1709  1723  1725     9
 1708  1709  1723  1727     9
 1710  1709  1723  1724     9
 1710  1709  1723  1725     9
 1710  1709  1723  1727     9
 1711  1709  1723  1724     9
 1711  1709  1723  1725     9
 1711  1709  1723  1727     9
 1712  1711  1709  1723     9
 1716  1711  1709  1723     9
 1709  1711  1712  1713     9
 1709  1711  1712  1714     9
 1709  1711  1716  1717     9
 1709  1711  1716  1718     9
 1712  1711  1716  1717     9
 1712  1711  1716  1718     9
 1713  1712  1711  1716     9
 1714  1712  1711  1716     9
 1711  1712  1714  1715     9
 1711  1712  1714  1719     9
 1713  1712  1714  1715     9
 1713  1712  1714  1719     9
 1712  1714  1719  1718     9
 1712  1714  1719  1720     9
 1715  1714  1719  1718     9
 1715  1714  1719  1720     9
 1711  1716  1718  1719     9
 1717  1716  1718  1719     9
 1716  1718  1719  1720     9
 1714  1719  1718  1716     9
 1714  1719  1720  1721     9
 1714  1719  1720  1722     9
 1718  1719  1720  1721     9
 1718  1719  1720  1722     9
 1709  1723  1725  1726     9
 1724  1723  1725  1726     9
 1709  1723  1727  1728     9
 1709  1723  1727  1729     9
 1724  1723  1727  1728     9
 1724  1723  1727  1729     9
 1725  1723  1727  1728     9
 1725  1723  1727  1729     9
 1726  1725  1723  1727     9
 1706  1727  1723  1709     9
 1706  1727  1723  1724     9
 1706  1727  1723  1725     9
 1706  1727  1729  1730     9
 1723  1727  1729  1730     9
 1728  1727  1729  1730     9
 1727  1729  1730  1731     9
 1727  1729  1730  1732     9
 1727  1729  1730  1733     9
 1729  1730  1733  1734     9
 1731  1730  1733  1734     9
 1732  1730  1733  1734     9
 1730  1733  1734  1735     9
 1730  1733  1734  1736     9
 1730  1733  1734  1737     9
 1733  1734  1737  1738     9
 1733  1734  1737  1739     9
 1733  1734  1737  1758     9
 1735  1734  1737  1738     9
 1735  1734  1737  1739     9
 1735  1734  1737  1758     9
 1736  1734  1737  1738     9
 1736  1734  1737  1739     9
 1736  1734  1737  1758     9
 1734  1737  1739  1740     9
 1738  1737  1739  1740     9
 1734  1737  1758  1754     9
 1734  1737  1758  1759     9
 1734  1737  1758  1760     9
 1738  1737  1758  1754     9
 1738  1737  1758  1759     9
 1738  1737  1758  1760     9
 1739  1737  1758  1754     9
 1739  1737  1758  1759     9
 1739  1737  1758  1760     9
 1740  1739  1737  1758     9
 1737  1739  1740  1741     9
 1737  1739  1740  1742     9
 1737  1739  1740  1754     9
 1739  1740  1742  1743     9
 1739  1740  1742  1747     9
 1741  1740  1742  1743     9
 1741  1740  1742  1747     9
 1739  1740  1754  1755     9
 1739  1740  1754  1756     9
 1739  1740  1754  1758     9
 1741  1740  1754  1755     9
 1741  1740  1754  1756     9
 1741  1740  1754  1758     9
 1742  1740  1754  1755     9
 1742  1740  1754  1756     9
 1742  1740  1754  1758     9
 1743  1742  1740  1754     9
 1747  1742  1740  1754     9
 1740  1742  1743  1744     9
 1740  1742  1743  1745     9
 1740  1742  1747  1748     9
 1740  1742  1747  1749     9
 1743  1742  1747  1748     9
 1743  1742  1747  1749     9
 1744  1743  1742  1747     9
 1745  1743  1742  1747     9
 1742  1743  1745  1746     9
 1742  1743  1745  1750     9
 1744  1743  1745  1746     9
 1744  1743  1745  1750     9
 1743  1745  1750  1749     9
 1743  1745  1750  1751     9
 1746  1745  1750  1749     9
 1746  1745  1750  1751     9
 1742  1747  1749  1750     9
 1748  1747  1749  1750     9
 1747  1749  1750  1751     9
 1745  1750  1749  1747     9
 1745  1750  1751  1752     9
 1745  1750  1751  1753     9
 1749  1750  1751  1752     9
 1749  1750  1751  1753     9
 1740  1754  1756  1757     9
 1755  1754  1756  1757     9
 1740  1754  1758  1759     9
 1740  1754  1758  1760     9
 1755  1754  1758  1759     9
 1755  1754  1758  1760     9
 1756  1754  1758  1759     9
 1756  1754  1758  1760     9
 1757  1756  1754  1758     9
 1737  1758  1754  1740     9
 1737  1758  1754  1755     9
 1737  1758  1754  1756     9
 1737  1758  1760  1761     9
 1754  1758  1760  1761     9
 1759  1758  1760  1761     9
 1758  1760  1761  1762     9
 1758  1760  1761  1763     9
 1758  1760  1761  1764     9
 1760  1761  1764  1765     9
 1762  1761  1764  1765     9
 1763  1761  1764  1765     9
 1761  1764  1765  1766     9
 1761  1764  1765  1767     9
 1761  1764  1765  1768     9
 1764  1765  1768  1769     9
 1764  1765  1768  1770     9
 1764  1765  1768  1788     9
 1766  1765  1768  1769     9
 1766  1765  1768  1770     9
 1766  1765  1768  1788     9
 1767  1765  1768  1769     9
 1767  1765  1768  1770     9
 1767  1765  1768  1788     9
 1765  1768  1770  1771     9
 1769  1768  1770  1771     9
 1765  1768  1788  1784     9
 1765  1768  1788  1789     9
 1765  1768  1788  1790     9
 1769  1768  1788  1784     9
 1769  1768  1788  1789     9
 1769  1768  1788  1790     9
 1770  1768  1788  1784     9
 1770  1768  1788  1789     9
 1770  1768  1788  1790     9
 1771  1770  1768  1788     9
 1768  1770  1771  1772     9
 1768  1770  1771  1773     9
 1768  1770  1771  1784     9
 1770  1771  1773  1774     9
 1770  1771  1773  1776     9
 1772  1771  1773  1774     9
 1772  1771  1773  1776     9
 1770  1771  1784  1785     9
 1770  1771  1784  1786     9
 1770  1771  1784  1788     9
 1772  1771  1784  1785     9
 1772  1771  1784  1786     9
 1772  1771  1784  1788     9
 1773  1771  1784  1785     9
 1773  1771  1784  1786     9
 1773  1771  1784  1788     9
 1774  1773  1771  1784     9
 1776  1773  1771  1784     9
 1771  1773  1774  1775     9
 1771  1773  1774  1782     9
 1776  1773  1774  1782     9
 1771  1773  1776  1777     9
 1771  1773  1776  1778     9
 1774  1773  1776  1777     9
 1774  1773  1776  1778     9
 1775  1774  1773  1776     9
 1773  1774  1782  1780     9
 1773  1774  1782  1783     9
 1775  1774  1782  1780     9
 1775  1774  1782  1783     9
 1773  1776  1778  1779     9
 1773  1776  1778  1780     9
 1777  1776  1778  1779     9
 1777  1776  1778  1780     9
 1776  1778  1780  1781     9
 1776  1778  1780  1782     9
 1779  1778  1780  1781     9
 1779  1778  1780  1782     9
 1778  1780  1782  1783     9
 1781  1780  1782  1783     9
 1774  1782  1780  1778     9
 1774  1782  1780  1781     9
 1771  1784  1786  1787     9
 1785  1784  1786  1787     9
 1771  1784  1788  1789     9
 1771  1784  1788  1790     9
 1785  1784  1788  1789     9
 1785  1784  1788  1790     9
 1786  1784  1788  1789     9
 1786  1784  1788  1790     9
 1787  1786  1784  1788     9
 1768  1788  1784  1771     9
 1768  1788  1784  1785     9
 1768  1788  1784  1786     9
 1768  1788  1790  1791     9
 1784  1788  1790  1791     9
 1789  1788  1790  1791     9
 1788  1790  1791  1792     9
 1788  1790  1791  1793     9
 1788  1790  1791  1794     9
 1790  1791  1794  1795     9
 1792  1791  1794  1795     9
 1793  1791  1794  1795     9
 1791  1794  1795  1796     9
 1791  1794  1795  1797     9
 1791  1794  1795  1798     9
 1794  1795  1798  1799     9
 1794  1795  1798  1800     9
 1794  1795  1798  1822     9
 1796  1795  1798  1799     9
 1796  1795  1798  1800     9
 1796  1795  1798  1822     9
 1797  1795  1798  1799     9
 1797  1795  1798  1800     9
 1797  1795  1798  1822     9
 1795  1798  1800  1801     9
 1799  1798  1800  1801     9
 1795  1798  1822  1818     9
 1795  1798  1822  1823     9
 1795  1798  1822  1824     9
 1799  1798  1822  1818     9
 1799  1798  1822  1823     9
 1799  1798  1822  1824     9
 1800  1798  1822  1818     9
 1800  1798  1822  1823     9
 1800  1798  1822  1824     9
 1801  1800  1798  1822     9
 1798  1800  1801  1802     9
 1798  1800  1801  1803     9
 1798  1800  1801  1818     9
 1800  1801  1803  1804     9
 1800  1801  1803  1816     9
 1802  1801  1803  1804     9
 1802  1801  1803  1816     9
 1800  1801  1818  1819     9
 1800  1801  1818  1820     9
 1800  1801  1818  1822     9
 1802  1801  1818  1819     9
 1802  1801  1818  1820     9
 1802  1801  1818  1822     9
 1803  1801  1818  1819     9
 1803  1801  1818  1820     9
 1803  1801  1818  1822     9
 1804  1803  1801  1818     9
 1816  1803  1801  1818     9
 1801  1803  1804  1808     9
 1801  1803  1804  1814     9
 1801  1803  1816  1815     9
 1801  1803  1816  1817     9
 1804  1803  1816  1815     9
 1804  1803  1816  1817     9
 1808  1804  1803  1816     9
 1814  1804  1803  1816     9
 1803  1804  1808  1809     9
 1803  1804  1814  1812     9
 1803  1804  1814  1815     9
 1808  1804  1814  1812     9
 1808  1804  1814  1815     9
 1806  1805  1809  1808     9
 1806  1805  1809  1810     9
 1807  1805  1809  1808     9
 1807  1805  1809  1810     9
 1809  1808  1804  1814     9
 1804  1808  1809  1805     9
 1804  1808  1809  1810     9
 1805  1809  1810  1811     9
 1805  1809  1810  1812     9
 1808  1809  1810  1811     9
 1808  1809  1810  1812     9
 1809  1810  1812  1813     9
 1809  1810  1812  1814     9
 1811  1810  1812  1813     9
 1811  1810  1812  1814     9
 1810  1812  1814  1815     9
 1813  1812  1814  1815     9
 1804  1814  1812  1810     9
 1804  1814  1812  1813     9
 1804  1814  1815  1816     9
 1812  1814  1815  1816     9
 1814  1815  1816  1817     9
 1803  1816  1815  1814     9
 1801  1818  1820  1821     9
 1819  1818  1820  1821     9
 1801  1818  1822  1823     9
 1801  1818  1822  1824     9
 1819  1818  1822  1823     9
 1819  1818  1822  1824     9
 1820  1818  1822  1823     9
 1820  1818  1822  1824     9
 1821  1820  1818  1822     9
 1798  1822  1818  1801     9
 1798  1822  1818  1819     9
 1798  1822  1818  1820     9
 1798  1822  1824  1825     9
 1818  1822  1824  1825     9
 1823  1822  1824  1825     9
 1822  1824  1825  1826     9
 1822  1824  1825  1827     9
 1822  1824  1825  1828     9
 1824  1825  1828  1829     9
 1826  1825  1828  1829     9
 1827  1825  1828  1829     9
 1825  1828  1829  1830     9
 1825  1828  1829  1831     9
 1825  1828  1829  1832     9
 1828  1829  1832  1833     9
 1828  1829  1832  1834     9
 1828  1829  1832  1855     9
 1830  1829  1832  1833     9
 1830  1829  1832  1834     9
 1830  1829  1832  1855     9
 1831  1829  1832  1833     9
 1831  1829  1832  1834     9
 1831  1829  1832  1855     9
 1829  1832  1834  1835     9
 1833  1832  1834  1835     9
 1829  1832  1855  1851     9
 1829  1832  1855  1856     9
 1829  1832  1855  1857     9
 1833  1832  1855  1851     9
 1833  1832  1855  1856     9
 1833  1832  1855  1857     9
 1834  1832  1855  1851     9
 1834  1832  1855  1856     9
 1834  1832  1855  1857     9
 1835  1834  1832  1855     9
 1832  1834  1835  1836     9
 1832  1834  1835  1837     9
 1832  1834  1835  1851     9
 1834  1835  1837  1840     9
 1834  1835  1837  1846     9
 1836  1835  1837  1840     9
 1836  1835  1837  1846     9
 1834  1835  1851  1852     9
 1834  1835  1851  1853     9
 1834  1835  1851  1855     9
 1836  1835  1851  1852     9
 1836  1835  1851  1853     9
 1836  1835  1851  1855     9
 1837  1835  1851  1852     9
 1837  1835  1851  1853     9
 1837  1835  1851  1855     9
 1840  1837  1835  1851     9
 1846  1837  1835  1851     9
 1835  1837  1840  1839     9
 1835  1837  1840  1841     9
 1835  1837  1846  1838     9
 1835  1837  1846  1845     9
 1840  1837  1846  1845     9
 1839  1838  1846  1845     9
 1839  1838  1847  1842     9
 1839  1838  1847  1848     9
 1846  1838  1847  1848     9
 1840  1839  1838  1846     9
 1840  1839  1838  1847     9
 1838  1839  1840  1841     9
 1839  1840  1837  1846     9
 1841  1840  1837  1846     9
 1837  1840  1839  1838     9
 1843  1842  1847  1848     9
 1844  1843  1842  1847     9
 1845  1843  1842  1847     9
 1842  1843  1845  1846     9
 1844  1843  1845  1846     9
 1838  1846  1837  1840     9
 1837  1846  1838  1839     9
 1837  1846  1838  1847     9
 1845  1846  1838  1847     9
 1837  1846  1845  1843     9
 1838  1846  1845  1843     9
 1842  1847  1838  1846     9
 1838  1847  1842  1843     9
 1838  1847  1848  1849     9
 1838  1847  1848  1850     9
 1842  1847  1848  1849     9
 1842  1847  1848  1850     9
 1835  1851  1853  1854     9
 1852  1851  1853  1854     9
 1835  1851  1855  1856     9
 1835  1851  1855  1857     9
 1852  1851  1855  1856     9
 1852  1851  1855  1857     9
 1853  1851  1855  1856     9
 1853  1851  1855  1857     9
 1854  1853  1851  1855     9
 1832  1855  1851  1835     9
 1832  1855  1851  1852     9
 1832  1855  1851  1853     9
 1832  1855  1857  1858     9
 1851  1855  1857  1858     9
 1856  1855  1857  1858     9
 1855  1857  1858  1859     9
 1855  1857  1858  1860     9
 1855  1857  1858  1861     9
 1857  1858  1861  1862     9
 1859  1858  1861  1862     9
 1860  1858  1861  1862     9
 1858  1861  1862  1863     9
 1858  1861  1862  1864     9
 1858  1861  1862  1865     9
 1861  1862  1865  1866     9
 1861  1862  1865  1867     9
 1861  1862  1865  1885     9
 1863  1862  1865  1866     9
 1863  1862  1865  1867     9
 1863  1862  1865  1885     9
 1864  1862  1865  1866     9
 1864  1862  1865  1867     9
 1864  1862  1865  1885     9
 1862  1865  1867  1868     9
 1866  1865  1867  1868     9
 1862  1865  1885  1881     9
 1862  1865  1885  1886     9
 1862  1865  1885  1887     9
 1866  1865  1885  1881     9
 1866  1865  1885  1886     9
 1866  1865  1885  1887     9
 1867  1865  1885  1881     9
 1867  1865  1885  1886     9
 1867  1865  1885  1887     9
 1868  1867  1865  1885     9
 1865  1867  1868  1869     9
 1865  1867  1868  1870     9
 1865  1867  1868  1881     9
 1867  1868  1870  1871     9
 1867  1868  1870  1873     9
 1869  1868  1870  1871     9
 1869  1868  1870  1873     9
 1867  1868  1881  1882     9
 1867  1868  1881  1883     9
 1867  1868  1881  1885     9
 1869  1868  1881  1882     9
 1869  1868  1881  1883     9
 1869  1868  1881  1885     9
 1870  1868  1881  1882     9
 1870  1868  1881  1883     9
 1870  1868  1881  1885     9
 1871  1870  1868  1881     9
 1873  1870  1868  1881     9
 1868  1870  1871  1872     9
 1868  1870  1871  1879     9
 1873  1870  1871  1879     9
 1868  1870  1873  1874     9
 1868  1870  1873  1875     9
 1871  1870  1873  1874     9
 1871  1870  1873  1875     9
 1872  1871  1870  1873     9
 1870  1871  1879  1877     9
 1870  1871  1879  1880     9
 1872  1871  1879  1877     9
 1872  1871  1879  1880     9
 1870  1873  1875  1876     9
 1870  1873  1875  1877     9
 1874  1873  1875  1876     9
 1874  1873  1875  1877     9
 1873  1875  1877  1878     9
 1873  1875  1877  1879     9
 1876  1875  1877  1878     9
 1876  1875  1877  1879     9
 1875  1877  1879  1880     9
 1878  1877  1879  1880     9
 1871  1879  1877  1875     9
 1871  1879  1877  1878     9
 1868  1881  1883  1884     9
 1882  1881  1883  1884     9
 1868  1881  1885  1886     9
 1868  1881  1885  1887     9
 1882  1881  1885  1886     9
 1882  1881  1885  1887     9
 1883  1881  1885  1886     9
 1883  1881  1885  1887     9
 1884  1883  1881  1885     9
 1865  1885  1881  1868     9
 1865  1885  1881  1882     9
 1865  1885  1881  1883     9
 1865  1885  1887  1888     9
 1881  1885  1887  1888     9
 1886  1885  1887  1888     9
 1885  1887  1888  1889     9
 1885  1887  1888  1890     9
 1885  1887  1888  1891     9
 1887  1888  1891  1892     9
 1889  1888  1891  1892     9
 1890  1888  1891  1892     9
 1888  1891  1892  1893     9
 1888  1891  1892  1894     9
 1888  1891  1892  1895     9
 1891  1892  1895  1896     9
 1891  1892  1895  1897     9
 1891  1892  1895  1916     9
 1893  1892  1895  1896     9
 1893  1892  1895  1897     9
 1893  1892  1895  1916     9
 1894  1892  1895  1896     9
 1894  1892  1895  1897     9
 1894  1892  1895  1916     9
 1892  1895  1897  1898     9
 1896  1895  1897  1898     9
 1892  1895  1916  1912     9
 1892  1895  1916  1917     9
 1892  1895  1916  1918     9
 1896  1895  1916  1912     9
 1896  1895  1916  1917     9
 1896  1895  1916  1918     9
 1897  1895  1916  1912     9
 1897  1895  1916  1917     9
 1897  1895  1916  1918     9
 1898  1897  1895  1916     9
 1895  1897  1898  1899     9
 1895  1897  1898  1900     9
 1895  1897  1898  1912     9
 1897  1898  1900  1901     9
 1897  1898  1900  1905     9
 1899  1898  1900  1901     9
 1899  1898  1900  1905     9
 1897  1898  1912  1913     9
 1897  1898  1912  1914     9
 1897  1898  1912  1916     9
 1899  1898  1912  1913     9
 1899  1898  1912  1914     9
 1899  1898  1912  1916     9
 1900  1898  1912  1913     9
 1900  1898  1912  1914     9
 1900  1898  1912  1916     9
 1901  1900  1898  1912     9
 1905  1900  1898  1912     9
 1898  1900  1901  1902     9
 1898  1900  1901  1903     9
 1898  1900  1905  1906     9
 1898  1900  1905  1907     9
 1901  1900  1905  1906     9
 1901  1900  1905  1907     9
 1902  1901  1900  1905     9
 1903  1901  1900  1905     9
 1900  1901  1903  1904     9
 1900  1901  1903  1908     9
 1902  1901  1903  1904     9
 1902  1901  1903  1908     9
 1901  1903  1908  1907     9
 1901  1903  1908  1909     9
 1904  1903  1908  1907     9
 1904  1903  1908  1909     9
 1900  1905  1907  1908     9
 1906  1905  1907  1908     9
 1905  1907  1908  1909     9
 1903  1908  1907  1905     9
 1903  1908  1909  1910     9
 1903  1908  1909  1911     9
 1907  1908  1909  1910     9
 1907  1908  1909  1911     9
 1898  1912  1914  1915     9
 1913  1912  1914  1915     9
 1898  1912  1916  1917     9
 1898  1912  1916  1918     9
 1913  1912  1916  1917     9
 1913  1912  1916  1918     9
 1914  1912  1916  1917     9
 1914  1912  1916  1918     9
 1915  1914  1912  1916     9
 1895  1916  1912  1898     9
 1895  1916  1912  1913     9
 1895  1916  1912  1914     9
 1895  1916  1918  1919     9
 1912  1916  1918  1919     9
 1917  1916  1918  1919     9
 1916  1918  1919  1920     9
 1916  1918  1919  1921     9
 1916  1918  1919  1922     9
 1918  1919  1922  1923     9
 1920  1919  1922  1923     9
 1921  1919  1922  1923     9
 1919  1922  1923  1924     9
 1919  1922  1923  1925     9
 1919  1922  1923  1926     9
 1922  1923  1926  1927     9
 1922  1923  1926  1928     9
 1922  1923  1926  1946     9
 1924  1923  1926  1927     9
 1924  1923  1926  1928     9
 1924  1923  1926  1946     9
 1925  1923  1926  1927     9
 1925  1923  1926  1928     9
 1925  1923  1926  1946     9
 1923  1926  1928  1929     9
 1927  1926  1928  1929     9
 1923  1926  1946  1942     9
 1923  1926  1946  1947     9
 1923  1926  1946  1948     9
 1927  1926  1946  1942     9
 1927  1926  1946  1947     9
 1927  1926  1946  1948     9
 1928  1926  1946  1942     9
 1928  1926  1946  1947     9
 1928  1926  1946  1948     9
 1929  1928  1926  1946     9
 1926  1928  1929  1930     9
 1926  1928  1929  1931     9
 1926  1928  1929  1942     9
 1928  1929  1931  1932     9
 1928  1929  1931  1934     9
 1930  1929  1931  1932     9
 1930  1929  1931  1934     9
 1928  1929  1942  1943     9
 1928  1929  1942  1944     9
 1928  1929  1942  1946     9
 1930  1929  1942  1943     9
 1930  1929  1942  1944     9
 1930  1929  1942  1946     9
 1931  1929  1942  1943     9
 1931  1929  1942  1944     9
 1931  1929  1942  1946     9
 1932  1931  1929  1942     9
 1934  1931  1929  1942     9
 1929  1931  1932  1933     9
 1929  1931  1932  1940     9
 1934  1931  1932  1940     9
 1929  1931  1934  1935     9
 1929  1931  1934  1936     9
 1932  1931  1934  1935     9
 1932  1931  1934  1936     9
 1933  1932  1931  1934     9
 1931  1932  1940  1938     9
 1931  1932  1940  1941     9
 1933  1932  1940  1938     9
 1933  1932  1940  1941     9
 1931  1934  1936  1937     9
 1931  1934  1936  1938     9
 1935  1934  1936  1937     9
 1935  1934  1936  1938     9
 1934  1936  1938  1939     9
 1934  1936  1938  1940     9
 1937  1936  1938  1939     9
 1937  1936  1938  1940     9
 1936  1938  1940  1941     9
 1939  1938  1940  1941     9
 1932  1940  1938  1936     9
 1932  1940  1938  1939     9
 1929  1942  1944  1945     9
 1943  1942  1944  1945     9
 1929  1942  1946  1947     9
 1929  1942  1946  1948     9
 1943  1942  1946  1947     9
 1943  1942  1946  1948     9
 1944  1942  1946  1947     9
 1944  1942  1946  1948     9
 1945  1944  1942  1946     9
 1926  1946  1942  1929     9
 1926  1946  1942  1943     9
 1926  1946  1942  1944     9
 1926  1946  1948  1949     9
 1942  1946  1948  1949     9
 1947  1946  1948  1949     9
 1946  1948  1949  1950     9
 1946  1948  1949  1951     9
 1946  1948  1949  1952     9
 1948  1949  1952  1953     9
 1950  1949  1952  1953     9
 1951  1949  1952  1953     9
 1949  1952  1953  1954     9
 1949  1952  1953  1955     9
 1949  1952  1953  1956     9
 1952  1953  1956  1957     9
 1952  1953  1956  1958     9
 1952  1953  1956  1980     9
 1954  1953  1956  1957     9
 1954  1953  1956  1958     9
 1954  1953  1956  1980     9
 1955  1953  1956  1957     9
 1955  1953  1956  1958     9
 1955  1953  1956  1980     9
 1953  1956  1958  1959     9
 1957  1956  1958  1959     9
 1953  1956  1980  1976     9
 1953  1956  1980  1981     9
 1953  1956  1980  1982     9
 1957  1956  1980  1976     9
 1957  1956  1980  1981     9
 1957  1956  1980  1982     9
 1958  1956  1980  1976     9
 1958  1956  1980  1981     9
 1958  1956  1980  1982     9
 1959  1958  1956  1980     9
 1956  1958  1959  1960     9
 1956  1958  1959  1961     9
 1956  1958  1959  1976     9
 1958  1959  1961  1962     9
 1958  1959  1961  1974     9
 1960  1959  1961  1962     9
 1960  1959  1961  1974     9
 1958  1959  1976  1977     9
 1958  1959  1976  1978     9
 1958  1959  1976  1980     9
 1960  1959  1976  1977     9
 1960  1959  1976  1978     9
 1960  1959  1976  1980     9
 1961  1959  1976  1977     9
 1961  1959  1976  1978     9
 1961  1959  1976  1980     9
 1962  1961  1959  1976     9
 1974  1961  1959  1976     9
 1959  1961  1962  1966     9
 1959  1961  1962  1972     9
 1959  1961  1974  1973     9
 1959  1961  1974  1975     9
 1962  1961  1974  1973     9
 1962  1961  1974  1975     9
 1966  1962  1961  1974     9
 1972  1962  1961  1974     9
 1961  1962  1966  1967     9
 1961  1962  1972  1970     9
 1961  1962  1972  1973     9
 1966  1962  1972  1970     9
 1966  1962  1972  1973     9
 1964  1963  1967  1966     9
 1964  1963  1967  1968     9
 1965  1963  1967  1966     9
 1965  1963  1967  1968     9
 1967  1966  1962  1972     9
 1962  1966  1967  1963     9
 1962  1966  1967  1968     9
 1963  1967  1968  1969     9
 1963  1967  1968  1970     9
 1966  1967  1968  1969     9
 1966  1967  1968  1970     9
 1967  1968  1970  1971     9
 1967  1968  1970  1972     9
 1969  1968  1970  1971     9
 1969  1968  1970  1972     9
 1968  1970  1972  1973     9
 1971  1970  1972  1973     9
 1962  1972  1970  1968     9
 1962  1972  1970  1971     9
 1962  1972  1973  1974     9
 1970  1972  1973  1974     9
 1972  1973  1974  1975     9
 1961  1974  1973  1972     9
 1959  1976  1978  1979     9
 1977  1976  1978  1979     9
 1959  1976  1980  1981     9
 1959  1976  1980  1982     9
 1977  1976  1980  1981     9
 1977  1976  1980  1982     9
 1978  1976  1980  1981     9
 1978  1976  1980  1982     9
 1979  1978  1976  1980     9
 1956  1980  1976  1959     9
 1956  1980  1976  1977     9
 1956  1980  1976  1978     9
 1956  1980  1982  1983     9
 1976  1980  1982  1983     9
 1981  1980  1982  1983     9
 1980  1982  1983  1984     9
 1980  1982  1983  1985     9
 1980  1982  1983  1986     9
 1982  1983  1986  1987     9
 1984  1983  1986  1987     9
 1985  1983  1986  1987     9
 1983  1986  1987  1988     9
 1983  1986  1987  1989     9
 1983  1986  1987  1990     9
 1986  1987  1990  1991     9
 1986  1987  1990  1992     9
 1986  1987  1990  2014     9
 1988  1987  1990  1991     9
 1988  1987  1990  1992     9
 1988  1987  1990  2014     9
 1989  1987  1990  1991     9
 1989  1987  1990  1992     9
 1989  1987  1990  2014     9
 1987  1990  1992  1993     9
 1991  1990  1992  1993     9
 1987  1990  2014  2010     9
 1987  1990  2014  2015     9
 1987  1990  2014  2016     9
 1991  1990  2014  2010     9
 1991  1990  2014  2015     9
 1991  1990  2014  2016     9
 1992  1990  2014  2010     9
 1992  1990  2014  2015     9
 1992  1990  2014  2016     9
 1993  1992  1990  2014     9
 1990  1992  1993  1994     9
 1990  1992  1993  1995     9
 1990  1992  1993  2010     9
 1992  1993  1995  1996     9
 1992  1993  1995  2008     9
 1994  1993  1995  1996     9
 1994  1993  1995  2008     9
 1992  1993  2010  2011     9
 1992  1993  2010  2012     9
 1992  1993  2010  2014     9
 1994  1993  2010  2011     9
 1994  1993  2010  2012     9
 1994  1993  2010  2014     9
 1995  1993  2010  2011     9
 1995  1993  2010  2012     9
 1995  1993  2010  2014     9
 1996  1995  1993  2010     9
 2008  1995  1993  2010     9
 1993  1995  1996  2000     9
 1993  1995  1996  2006     9
 1993  1995  2008  2007     9
 1993  1995  2008  2009     9
 1996  1995  2008  2007     9
 1996  1995  2008  2009     9
 2000  1996  1995  2008     9
 2006  1996  1995  2008     9
 1995  1996  2000  2001     9
 1995  1996  2006  2004     9
 1995  1996  2006  2007     9
 2000  1996  2006  2004     9
 2000  1996  2006  2007     9
 1998  1997  2001  2000     9
 1998  1997  2001  2002     9
 1999  1997  2001  2000     9
 1999  1997  2001  2002     9
 2001  2000  1996  2006     9
 1996  2000  2001  1997     9
 1996  2000  2001  2002     9
 1997  2001  2002  2003     9
 1997  2001  2002  2004     9
 2000  2001  2002  2003     9
 2000  2001  2002  2004     9
 2001  2002  2004  2005     9
 2001  2002  2004  2006     9
 2003  2002  2004  2005     9
 2003  2002  2004  2006     9
 2002  2004  2006  2007     9
 2005  2004  2006  2007     9
 1996  2006  2004  2002     9
 1996  2006  2004  2005     9
 1996  2006  2007  2008     9
 2004  2006  2007  2008     9
 2006  2007  2008  2009     9
 1995  2008  2007  2006     9
 1993  2010  2012  2013     9
 2011  2010  2012  2013     9
 1993  2010  2014  2015     9
 1993  2010  2014  2016     9
 2011  2010  2014  2015     9
 2011  2010  2014  2016     9
 2012  2010  2014  2015     9
 2012  2010  2014  2016     9
 2013  2012  2010  2014     9
 1990  2014  2010  1993     9
 1990  2014  2010  2011     9
 1990  2014  2010  2012     9
 1990  2014  2016  2017     9
 2010  2014  2016  2017     9
 2015  2014  2016  2017     9
 2014  2016  2017  2018     9
 2014  2016  2017  2019     9
 2014  2016  2017  2020     9
 2016  2017  2020  2021     9
 2018  2017  2020  2021     9
 2019  2017  2020  2021     9
 2017  2020  2021  2022     9
 2017  2020  2021  2023     9
 2017  2020  2021  2024     9
 2020  2021  2024  2025     9
 2020  2021  2024  2026     9
 2020  2021  2024  2047     9
 2022  2021  2024  2025     9
 2022  2021  2024  2026     9
 2022  2021  2024  2047     9
 2023  2021  2024  2025     9
 2023  2021  2024  2026     9
 2023  2021  2024  2047     9
 2021  2024  2026  2027     9
 2025  2024  2026  2027     9
 2021  2024  2047  2043     9
 2021  2024  2047  2048     9
 2021  2024  2047  2049     9
 2025  2024  2047  2043     9
 2025  2024  2047  2048     9
 2025  2024  2047  2049     9
 2026  2024  2047  2043     9
 2026  2024  2047  2048     9
 2026  2024  2047  2049     9
 2027  2026  2024  2047     9
 2024  2026  2027  2028     9
 2024  2026  2027  2029     9
 2024  2026  2027  2043     9
 2026  2027  2029  2032     9
 2026  2027  2029  2038     9
 2028  2027  2029  2032     9
 2028  2027  2029  2038     9
 2026  2027  2043  2044     9
 2026  2027  2043  2045     9
 2026  2027  2043  2047     9
 2028  2027  2043  2044     9
 2028  2027  2043  2045     9
 2028  2027  2043  2047     9
 2029  2027  2043  2044     9
 2029  2027  2043  2045     9
 2029  2027  2043  2047     9
 2032  2029  2027  2043     9
 2038  2029  2027  2043     9
 2027  2029  2032  2031     9
 2027  2029  2032  2033     9
 2027  2029  2038  2030     9
 2027  2029  2038  2037     9
 2032  2029  2038  2037     9
 2031  2030  2038  2037     9
 2031  2030  2039  2034     9
 2031  2030  2039  2040     9
 2038  2030  2039  2040     9
 2032  2031  2030  2038     9
 2032  2031  2030  2039     9
 2030  2031  2032  2033     9
 2031  2032  2029  2038     9
 2033  2032  2029  2038     9
 2029  2032  2031  2030     9
 2035  2034  2039  2040     9
 2036  2035  2034  2039     9
 2037  2035  2034  2039     9
 2034  2035  2037  2038     9
 2036  2035  2037  2038     9
 2030  2038  2029  2032     9
 2029  2038  2030  2031     9
 2029  2038  2030  2039     9
 2037  2038  2030  2039     9
 2029  2038  2037  2035     9
 2030  2038  2037  2035     9
 2034  2039  2030  2038     9
 2030  2039  2034  2035     9
 2030  2039  2040  2041     9
 2030  2039  2040  2042     9
 2034  2039  2040  2041     9
 2034  2039  2040  2042     9
 2027  2043  2045  2046     9
 2044  2043  2045  2046     9
 2027  2043  2047  2048     9
 2027  2043  2047  2049     9
 2044  2043  2047  2048     9
 2044  2043  2047  2049     9
 2045  2043  2047  2048     9
 2045  2043  2047  2049     9
 2046  2045  2043  2047     9
 2024  2047  2043  2027     9
 2024  2047  2043  2044     9
 2024  2047  2043  2045     9
 2024  2047  2049  2050     9
 2043  2047  2049  2050     9
 2048  2047  2049  2050     9
 2047  2049  2050  2051     9
 2047  2049  2050  2052     9
 2047  2049  2050  2053     9
 2049  2050  2053  2054     9
 2051  2050  2053  2054     9
 2052  2050  2053  2054     9
 2050  2053  2054  2055     9
 2050  2053  2054  2056     9
 2050  2053  2054  2057     9
 2053  2054  2057  2058     9
 2053  2054  2057  2059     9
 2053  2054  2057  2077     9
 2055  2054  2057  2058     9
 2055  2054  2057  2059     9
 2055  2054  2057  2077     9
 2056  2054  2057  2058     9
 2056  2054  2057  2059     9
 2056  2054  2057  2077     9
 2054  2057  2059  2060     9
 2058  2057  2059  2060     9
 2054  2057  2077  2073     9
 2054  2057  2077  2078     9
 2054  2057  2077  2079     9
 2058  2057  2077  2073     9
 2058  2057  2077  2078     9
 2058  2057  2077  2079     9
 2059  2057  2077  2073     9
 2059  2057  2077  2078     9
 2059  2057  2077  2079     9
 2060  2059  2057  2077     9
 2057  2059  2060  2061     9
 2057  2059  2060  2062     9
 2057  2059  2060  2073     9
 2059  2060  2062  2063     9
 2059  2060  2062  2065     9
 2061  2060  2062  2063     9
 2061  2060  2062  2065     9
 2059  2060  2073  2074     9
 2059  2060  2073  2075     9
 2059  2060  2073  2077     9
 2061  2060  2073  2074     9
 2061  2060  2073  2075     9
 2061  2060  2073  2077     9
 2062  2060  2073  2074     9
 2062  2060  2073  2075     9
 2062  2060  2073  2077     9
 2063  2062  2060  2073     9
 2065  2062  2060  2073     9
 2060  2062  2063  2064     9
 2060  2062  2063  2071     9
 2065  2062  2063  2071     9
 2060  2062  2065  2066     9
 2060  2062  2065  2067     9
 2063  2062  2065  2066     9
 2063  2062  2065  2067     9
 2064  2063  2062  2065     9
 2062  2063  2071  2069     9
 2062  2063  2071  2072     9
 2064  2063  2071  2069     9
 2064  2063  2071  2072     9
 2062  2065  2067  2068     9
 2062  2065  2067  2069     9
 2066  2065  2067  2068     9
 2066  2065  2067  2069     9
 2065  2067  2069  2070     9
 2065  2067  2069  2071     9
 2068  2067  2069  2070     9
 2068  2067  2069  2071     9
 2067  2069  2071  2072     9
 2070  2069  2071  2072     9
 2063  2071  2069  2067     9
 2063  2071  2069  2070     9
 2060  2073  2075  2076     9
 2074  2073  2075  2076     9
 2060  2073  2077  2078     9
 2060  2073  2077  2079     9
 2074  2073  2077  2078     9
 2074  2073  2077  2079     9
 2075  2073  2077  2078     9
 2075  2073  2077  2079     9
 2076  2075  2073  2077     9
 2057  2077  2073  2060     9
 2057  2077  2073  2074     9
 2057  2077  2073  2075     9
 2057  2077  2079  2080     9
 2073  2077  2079  2080     9
 2078  2077  2079  2080     9
 2077  2079  2080  2081     9
 2077  2079  2080  2082     9
 2077  2079  2080  2083     9
 2079  2080  2083  2084     9
 2081  2080  2083  2084     9
 2082  2080  2083  2084     9
 2080  2083  2084  2085     9
 2080  2083  2084  2086     9
 2080  2083  2084  2087     9
 2083  2084  2087  2088     9
 2083  2084  2087  2089     9
 2083  2084  2087  2110     9
 2085  2084  2087  2088     9
 2085  2084  2087  2089     9
 2085  2084  2087  2110     9
 2086  2084  2087  2088     9
 2086  2084  2087  2089     9
 2086  2084  2087  2110     9
 2084  2087  2089  2090     9
 2088  2087  2089  2090     9
 2084  2087  2110  2106     9
 2084  2087  2110  2111     9
 2084  2087  2110  2112     9
 2088  2087  2110  2106     9
 2088  2087  2110  2111     9
 2088  2087  2110  2112     9
 2089  2087  2110  2106     9
 2089  2087  2110  2111     9
 2089  2087  2110  2112     9
 2090  2089  2087  2110     9
 2087  2089  2090  2091     9
 2087  2089  2090  2092     9
 2087  2089  2090  2106     9
 2089  2090  2092  2095     9
 2089  2090  2092  2101     9
 2091  2090  2092  2095     9
 2091  2090  2092  2101     9
 2089  2090  2106  2107     9
 2089  2090  2106  2108     9
 2089  2090  2106  2110     9
 2091  2090  2106  2107     9
 2091  2090  2106  2108     9
 2091  2090  2106  2110     9
 2092  2090  2106  2107     9
 2092  2090  2106  2108     9
 2092  2090  2106  2110     9
 2095  2092  2090  2106     9
 2101  2092  2090  2106     9
 2090  2092  2095  2094     9
 2090  2092  2095  2096     9
 2090  2092  2101  2093     9
 2090  2092  2101  2100     9
 2095  2092  2101  2100     9
 2094  2093  2101  2100     9
 2094  2093  2102  2097     9
 2094  2093  2102  2103     9
 2101  2093  2102  2103     9
 2095  2094  2093  2101     9
 2095  2094  2093  2102     9
 2093  2094  2095  2096     9
 2094  2095  2092  2101     9
 2096  2095  2092  2101     9
 2092  2095  2094  2093     9
 2098  2097  2102  2103     9
 2099  2098  2097  2102     9
 2100  2098  2097  2102     9
 2097  2098  2100  2101     9
 2099  2098  2100  2101     9
 2093  2101  2092  2095     9
 2092  2101  2093  2094     9
 2092  2101  2093  2102     9
 2100  2101  2093  2102     9
 2092  2101  2100  2098     9
 2093  2101  2100  2098     9
 2097  2102  2093  2101     9
 2093  2102  2097  2098     9
 2093  2102  2103  2104     9
 2093  2102  2103  2105     9
 2097  2102  2103  2104     9
 2097  2102  2103  2105     9
 2090  2106  2108  2109     9
 2107  2106  2108  2109     9
 2090  2106  2110  2111     9
 2090  2106  2110  2112     9
 2107  2106  2110  2111     9
 2107  2106  2110  2112     9
 2108  2106  2110  2111     9
 2108  2106  2110  2112     9
 2109  2108  2106  2110     9
 2087  2110  2106  2090     9
 2087  2110  2106  2107     9
 2087  2110  2106  2108     9
 2087  2110  2112  2113     9
 2106  2110  2112  2113     9
 2111  2110  2112  2113     9
 2110  2112  2113  2114     9
 2110  2112  2113  2115     9
 2110  2112  2113  2116     9
 2112  2113  2116  2117     9
 2114  2113  2116  2117     9
 2115  2113  2116  2117     9
 2113  2116  2117  2118     9
 2113  2116  2117  2119     9
 2113  2116  2117  2120     9
 2116  2117  2120  2121     9
 2116  2117  2120  2122     9
 2116  2117  2120  2143     9
 2118  2117  2120  2121     9
 2118  2117  2120  2122     9
 2118  2117  2120  2143     9
 2119  2117  2120  2121     9
 2119  2117  2120  2122     9
 2119  2117  2120  2143     9
 2117  2120  2122  2123     9
 2121  2120  2122  2123     9
 2117  2120  2143  2139     9
 2117  2120  2143  2144     9
 2117  2120  2143  2145     9
 2121  2120  2143  2139     9
 2121  2120  2143  2144     9
 2121  2120  2143  2145     9
 2122  2120  2143  2139     9
 2122  2120  2143  2144     9
 2122  2120  2143  2145     9
 2123  2122  2120  2143     9
 2120  2122  2123  2124     9
 2120  2122  2123  2125     9
 2120  2122  2123  2139     9
 2122  2123  2125  2128     9
 2122  2123  2125  2134     9
 2124  2123  2125  2128     9
 2124  2123  2125  2134     9
 2122  2123  2139  2140     9
 2122  2123  2139  2141     9
 2122  2123  2139  2143     9
 2124  2123  2139  2140     9
 2124  2123  2139  2141     9
 2124  2123  2139  2143     9
 2125  2123  2139  2140     9
 2125  2123  2139  2141     9
 2125  2123  2139  2143     9
 2128  2125  2123  2139     9
 2134  2125  2123  2139     9
 2123  2125  2128  2127     9
 2123  2125  2128  2129     9
 2123  2125  2134  2126     9
 2123  2125  2134  2133     9
 2128  2125  2134  2133     9
 2127  2126  2134  2133     9
 2127  2126  2135  2130     9
 2127  2126  2135  2136     9
 2134  2126  2135  2136     9
 2128  2127  2126  2134     9
 2128  2127  2126  2135     9
 2126  2127  2128  2129     9
 2127  2128  2125  2134     9
 2129  2128  2125  2134     9
 2125  2128  2127  2126     9
 2131  2130  2135  2136     9
 2132  2131  2130  2135     9
 2133  2131  2130  2135     9
 2130  2131  2133  2134     9
 2132  2131  2133  2134     9
 2126  2134  2125  2128     9
 2125  2134  2126  2127     9
 2125  2134  2126  2135     9
 2133  2134  2126  2135     9
 2125  2134  2133  2131     9
 2126  2134  2133  2131     9
 2130  2135  2126  2134     9
 2126  2135  2130  2131     9
 2126  2135  2136  2137     9
 2126  2135  2136  2138     9
 2130  2135  2136  2137     9
 2130  2135  2136  2138     9
 2123  2139  2141  2142     9
 2140  2139  2141  2142     9
 2123  2139  2143  2144     9
 2123  2139  2143  2145     9
 2140  2139  2143  2144     9
 2140  2139  2143  2145     9
 2141  2139  2143  2144     9
 2141  2139  2143  2145     9
 2142  2141  2139  2143     9
 2120  2143  2139  2123     9
 2120  2143  2139  2140     9
 2120  2143  2139  2141     9
 2120  2143  2145  2146     9
 2139  2143  2145  2146     9
 2144  2143  2145  2146     9
 2143  2145  2146  2147     9
 2143  2145  2146  2148     9
 2143  2145  2146  2149     9
 2145  2146  2149  2150     9
 2147  2146  2149  2150     9
 2148  2146  2149  2150     9
 2146  2149  2150  2151     9
 2146  2149  2150  2152     9
 2146  2149  2150  2153     9
 2149  2150  2153  2154     9
 2149  2150  2153  2155     9
 2149  2150  2153  2173     9
 2151  2150  2153  2154     9
 2151  2150  2153  2155     9
 2151  2150  2153  2173     9
 2152  2150  2153  2154     9
 2152  2150  2153  2155     9
 2152  2150  2153  2173     9
 2150  2153  2155  2156     9
 2154  2153  2155  2156     9
 2150  2153  2173  2169     9
 2150  2153  2173  2174     9
 2150  2153  2173  2175     9
 2154  2153  2173  2169     9
 2154  2153  2173  2174     9
 2154  2153  2173  2175     9
 2155  2153  2173  2169     9
 2155  2153  2173  2174     9
 2155  2153  2173  2175     9
 2156  2155  2153  2173     9
 2153  2155  2156  2157     9
 2153  2155  2156  2158     9
 2153  2155  2156  2169     9
 2155  2156  2158  2159     9
 2155  2156  2158  2161     9
 2157  2156  2158  2159     9
 2157  2156  2158  2161     9
 2155  2156  2169  2170     9
 2155  2156  2169  2171     9
 2155  2156  2169  2173     9
 2157  2156  2169  2170     9
 2157  2156  2169  2171     9
 2157  2156  2169  2173     9
 2158  2156  2169  2170     9
 2158  2156  2169  2171     9
 2158  2156  2169  2173     9
 2159  2158  2156  2169     9
 2161  2158  2156  2169     9
 2156  2158  2159  2160     9
 2156  2158  2159  2167     9
 2161  2158  2159  2167     9
 2156  2158  2161  2162     9
 2156  2158  2161  2163     9
 2159  2158  2161  2162     9
 2159  2158  2161  2163     9
 2160  2159  2158  2161     9
 2158  2159  2167  2165     9
 2158  2159  2167  2168     9
 2160  2159  2167  2165     9
 2160  2159  2167  2168     9
 2158  2161  2163  2164     9
 2158  2161  2163  2165     9
 2162  2161  2163  2164     9
 2162  2161  2163  2165     9
 2161  2163  2165  2166     9
 2161  2163  2165  2167     9
 2164  2163  2165  2166     9
 2164  2163  2165  2167     9
 2163  2165  2167  2168     9
 2166  2165  2167  2168     9
 2159  2167  2165  2163     9
 2159  2167  2165  2166     9
 2156  2169  2171  2172     9
 2170  2169  2171  2172     9
 2156  2169  2173  2174     9
 2156  2169  2173  2175     9
 2170  2169  2173  2174     9
 2170  2169  2173  2175     9
 2171  2169  2173  2174     9
 2171  2169  2173  2175     9
 2172  2171  2169  2173     9
 2153  2173  2169  2156     9
 2153  2173  2169  2170     9
 2153  2173  2169  2171     9
 2153  2173  2175  2176     9
 2169  2173  2175  2176     9
 2174  2173  2175  2176     9
 2173  2175  2176  2177     9
 2173  2175  2176  2178     9
 2173  2175  2176  2179     9
 2175  2176  2179  2180     9
 2177  2176  2179  2180     9
 2178  2176  2179  2180     9
 2176  2179  2180  2181     9
 2176  2179  2180  2182     9
 2176  2179  2180  2183     9
 2179  2180  2183  2184     9
 2179  2180  2183  2185     9
 2179  2180  2183  2207     9
 2181  2180  2183  2184     9
 2181  2180  2183  2185     9
 2181  2180  2183  2207     9
 2182  2180  2183  2184     9
 2182  2180  2183  2185     9
 2182  2180  2183  2207     9
 2180  2183  2185  2186     9
 2184  2183  2185  2186     9
 2180  2183  2207  2203     9
 2180  2183  2207  2208     9
 2180  2183  2207  2209     9
 2184  2183  2207  2203     9
 2184  2183  2207  2208     9
 2184  2183  2207  2209     9
 2185  2183  2207  2203     9
 2185  2183  2207  2208     9
 2185  2183  2207  2209     9
 2186  2185  2183  2207     9
 2183  2185  2186  2187     9
 2183  2185  2186  2188     9
 2183  2185  2186  2203     9
 2185  2186  2188  2189     9
 2185  2186  2188  2201     9
 2187  2186  2188  2189     9
 2187  2186  2188  2201     9
 2185  2186  2203  2204     9
 2185  2186  2203  2205     9
 2185  2186  2203  2207     9
 2187  2186  2203  2204     9
 2187  2186  2203  2205     9
 2187  2186  2203  2207     9
 2188  2186  2203  2204     9
 2188  2186  2203  2205     9
 2188  2186  2203  2207     9
 2189  2188  2186  2203     9
 2201  2188  2186  2203     9
 2186  2188  2189  2193     9
 2186  2188  2189  2199     9
 2186  2188  2201  2200     9
 2186  2188  2201  2202     9
 2189  2188  2201  2200     9
 2189  2188  2201  2202     9
 2193  2189  2188  2201     9
 2199  2189  2188  2201     9
 2188  2189  2193  2194     9
 2188  2189  2199  2197     9
 2188  2189  2199  2200     9
 2193  2189  2199  2197     9
 2193  2189  2199  2200     9
 2191  2190  2194  2193     9
 2191  2190  2194  2195     9
 2192  2190  2194  2193     9
 2192  2190  2194  2195     9
 2194  2193  2189  2199     9
 2189  2193  2194  2190     9
 2189  2193  2194  2195     9
 2190  2194  2195  2196     9
 2190  2194  2195  2197     9
 2193  2194  2195  2196     9
 2193  2194  2195  2197     9
 2194  2195  2197  2198     9
 2194  2195  2197  2199     9
 2196  2195  2197  2198     9
 2196  2195  2197  2199     9
 2195  2197  2199  2200     9
 2198  2197  2199  2200     9
 2189  2199  2197  2195     9
 2189  2199  2197  2198     9
 2189  2199  2200  2201     9
 2197  2199  2200  2201     9
 2199  2200  2201  2202     9
 2188  2201  2200  2199     9
 2186  2203  2205  2206     9
 2204  2203  2205  2206     9
 2186  2203  2207  2208     9
 2186  2203  2207  2209     9
 2204  2203  2207  2208     9
 2204  2203  2207  2209     9
 2205  2203  2207  2208     9
 2205  2203  2207  2209     9
 2206  2205  2203  2207     9
 2183  2207  2203  2186     9
 2183  2207  2203  2204     9
 2183  2207  2203  2205     9
 2183  2207  2209  2210     9
 2203  2207  2209  2210     9
 2208  2207  2209  2210     9
 2207  2209  2210  2211     9
 2207  2209  2210  2212     9
 2207  2209  2210  2213     9
 2209  2210  2213  2214     9
 2211  2210  2213  2214     9
 2212  2210  2213  2214     9
 2210  2213  2214  2215     9
 2210  2213  2214  2216     9
 2210  2213  2214  2217     9
 2213  2214  2217  2218     9
 2213  2214  2217  2219     9
 2213  2214  2217  2238     9
 2215  2214  2217  2218     9
 2215  2214  2217  2219     9
 2215  2214  2217  2238     9
 2216  2214  2217  2218     9
 2216  2214  2217  2219     9
 2216  2214  2217  2238     9
 2214  2217  2219  2220     9
 2218  2217  2219  2220     9
 2214  2217  2238  2234     9
 2214  2217  2238  2239     9
 2214  2217  2238  2240     9
 2218  2217  2238  2234     9
 2218  2217  2238  2239     9
 2218  2217  2238  2240     9
 2219  2217  2238  2234     9
 2219  2217  2238  2239     9
 2219  2217  2238  2240     9
 2220  2219  2217  2238     9
 2217  2219  2220  2221     9
 2217  2219  2220  2222     9
 2217  2219  2220  2234     9
 2219  2220  2222  2223     9
 2219  2220  2222  2227     9
 2221  2220  2222  2223     9
 2221  2220  2222  2227     9
 2219  2220  2234  2235     9
 2219  2220  2234  2236     9
 2219  2220  2234  2238     9
 2221  2220  2234  2235     9
 2221  2220  2234  2236     9
 2221  2220  2234  2238     9
 2222  2220  2234  2235     9
 2222  2220  2234  2236     9
 2222  2220  2234  2238     9
 2223  2222  2220  2234     9
 2227  2222  2220  2234     9
 2220  2222  2223  2224     9
 2220  2222  2223  2225     9
 2220  2222  2227  2228     9
 2220  2222  2227  2229     9
 2223  2222  2227  2228     9
 2223  2222  2227  2229     9
 2224  2223  2222  2227     9
 2225  2223  2222  2227     9
 2222  2223  2225  2226     9
 2222  2223  2225  2230     9
 2224  2223  2225  2226     9
 2224  2223  2225  2230     9
 2223  2225  2230  2229     9
 2223  2225  2230  2231     9
 2226  2225  2230  2229     9
 2226  2225  2230  2231     9
 2222  2227  2229  2230     9
 2228  2227  2229  2230     9
 2227  2229  2230  2231     9
 2225  2230  2229  2227     9
 2225  2230  2231  2232     9
 2225  2230  2231  2233     9
 2229  2230  2231  2232     9
 2229  2230  2231  2233     9
 2220  2234  2236  2237     9
 2235  2234  2236  2237     9
 2220  2234  2238  2239     9
 2220  2234  2238  2240     9
 2235  2234  2238  2239     9
 2235  2234  2238  2240     9
 2236  2234  2238  2239     9
 2236  2234  2238  2240     9
 2237  2236  2234  2238     9
 2217  2238  2234  2220     9
 2217  2238  2234  2235     9
 2217  2238  2234  2236     9
 2217  2238  2240  2241     9
 2234  2238  2240  2241     9
 2239  2238  2240  2241     9
 2238  2240  2241  2242     9
 2238  2240  2241  2243     9
 2238  2240  2241  2244     9
 2240  2241  2244  2245     9
 2242  2241  2244  2245     9
 2243  2241  2244  2245     9
 2241  2244  2245  2246     9
 2241  2244  2245  2247     9
 2241  2244  2245  2248     9
 2244  2245  2248  2249     9
 2244  2245  2248  2250     9
 2244  2245  2248  2269     9
 2246  2245  2248  2249     9
 2246  2245  2248  2250     9
 2246  2245  2248  2269     9
 2247  2245  2248  2249     9
 2247  2245  2248  2250     9
 2247  2245  2248  2269     9
 2245  2248  2250  2251     9
 2249  2248  2250  2251     9
 2245  2248  2269  2265     9
 2245  2248  2269  2270     9
 2245  2248  2269  2271     9
 2249  2248  2269  2265     9
 2249  2248  2269  2270     9
 2249  2248  2269  2271     9
 2250  2248  2269  2265     9
 2250  2248  2269  2270     9
 2250  2248  2269  2271     9
 2251  2250  2248  2269     9
 2248  2250  2251  2252     9
 2248  2250  2251  2253     9
 2248  2250  2251  2265     9
 2250  2251  2253  2254     9
 2250  2251  2253  2258     9
 2252  2251  2253  2254     9
 2252  2251  2253  2258     9
 2250  2251  2265  2266     9
 2250  2251  2265  2267     9
 2250  2251  2265  2269     9
 2252  2251  2265  2266     9
 2252  2251  2265  2267     9
 2252  2251  2265  2269     9
 2253  2251  2265  2266     9
 2253  2251  2265  2267     9
 2253  2251  2265  2269     9
 2254  2253  2251  2265     9
 2258  2253  2251  2265     9
 2251  2253  2254  2255     9
 2251  2253  2254  2256     9
 2251  2253  2258  2259     9
 2251  2253  2258  2260     9
 2254  2253  2258  2259     9
 2254  2253  2258  2260     9
 2255  2254  2253  2258     9
 2256  2254  2253  2258     9
 2253  2254  2256  2257     9
 2253  2254  2256  2261     9
 2255  2254  2256  2257     9
 2255  2254  2256  2261     9
 2254  2256  2261  2260     9
 2254  2256  2261  2262     9
 2257  2256  2261  2260     9
 2257  2256  2261  2262     9
 2253  2258  2260  2261     9
 2259  2258  2260  2261     9
 2258  2260  2261  2262     9
 2256  2261  2260  2258     9
 2256  2261  2262  2263     9
 2256  2261  2262  2264     9
 2260  2261  2262  2263     9
 2260  2261  2262  2264     9
 2251  2265  2267  2268     9
 2266  2265  2267  2268     9
 2251  2265  2269  2270     9
 2251  2265  2269  2271     9
 2266  2265  2269  2270     9
 2266  2265  2269  2271     9
 2267  2265  2269  2270     9
 2267  2265  2269  2271     9
 2268  2267  2265  2269     9
 2248  2269  2265  2251     9
 2248  2269  2265  2266     9
 2248  2269  2265  2267     9
 2248  2269  2271  2272     9
 2265  2269  2271  2272     9
 2270  2269  2271  2272     9
 2269  2271  2272  2273     9
 2269  2271  2272  2274     9
 2269  2271  2272  2275     9
 2271  2272  2275  2276     9
 2273  2272  2275  2276     9
 2274  2272  2275  2276     9
 2272  2275  2276  2277     9
 2272  2275  2276  2278     9
 2272  2275  2276  2279     9
 2275  2276  2279  2280     9
 2275  2276  2279  2281     9
 2275  2276  2279  2302     9
 2277  2276  2279  2280     9
 2277  2276  2279  2281     9
 2277  2276  2279  2302     9
 2278  2276  2279  2280     9
 2278  2276  2279  2281     9
 2278  2276  2279  2302     9
 2276  2279  2281  2282     9
 2280  2279  2281  2282     9
 2276  2279  2302  2298     9
 2276  2279  2302  2303     9
 2276  2279  2302  2304     9
 2280  2279  2302  2298     9
 2280  2279  2302  2303     9
 2280  2279  2302  2304     9
 2281  2279  2302  2298     9
 2281  2279  2302  2303     9
 2281  2279  2302  2304     9
 2282  2281  2279  2302     9
 2279  2281  2282  2283     9
 2279  2281  2282  2284     9
 2279  2281  2282  2298     9
 2281  2282  2284  2287     9
 2281  2282  2284  2293     9
 2283  2282  2284  2287     9
 2283  2282  2284  2293     9
 2281  2282  2298  2299     9
 2281  2282  2298  2300     9
 2281  2282  2298  2302     9
 2283  2282  2298  2299     9
 2283  2282  2298  2300     9
 2283  2282  2298  2302     9
 2284  2282  2298  2299     9
 2284  2282  2298  2300     9
 2284  2282  2298  2302     9
 2287  2284  2282  2298     9
 2293  2284  2282  2298     9
 2282  2284  2287  2286     9
 2282  2284  2287  2288     9
 2282  2284  2293  2285     9
 2282  2284  2293  2292     9
 2287  2284  2293  2292     9
 2286  2285  2293  2292     9
 2286  2285  2294  2289     9
 2286  2285  2294  2295     9
 2293  2285  2294  2295     9
 2287  2286  2285  2293     9
 2287  2286  2285  2294     9
 2285  2286  2287  2288     9
 2286  2287  2284  2293     9
 2288  2287  2284  2293     9
 2284  2287  2286  2285     9
 2290  2289  2294  2295     9
 2291  2290  2289  2294     9
 2292  2290  2289  2294     9
 2289  2290  2292  2293     9
 2291  2290  2292  2293     9
 2285  2293  2284  2287     9
 2284  2293  2285  2286     9
 2284  2293  2285  2294     9
 2292  2293  2285  2294     9
 2284  2293  2292  2290     9
 2285  2293  2292  2290     9
 2289  2294  2285  2293     9
 2285  2294  2289  2290     9
 2285  2294  2295  2296     9
 2285  2294  2295  2297     9
 2289  2294  2295  2296     9
 2289  2294  2295  2297     9
 2282  2298  2300  2301     9
 2299  2298  2300  2301     9
 2282  2298  2302  2303     9
 2282  2298  2302  2304     9
 2299  2298  2302  2303     9
 2299  2298  2302  2304     9
 2300  2298  2302  2303     9
 2300  2298  2302  2304     9
 2301  2300  2298  2302     9
 2279  2302  2298  2282     9
 2279  2302  2298  2299     9
 2279  2302  2298  2300     9
 2279  2302  2304  2305     9
 2298  2302  2304  2305     9
 2303  2302  2304  2305     9
 2302  2304  2305  2306     9
 2302  2304  2305  2307     9
 2302  2304  2305  2308     9
 2304  2305  2308  2309     9
 2306  2305  2308  2309     9
 2307  2305  2308  2309     9
 2305  2308  2309  2310     9
 2305  2308  2309  2311     9
 2305  2308  2309  2312     9
 2308  2309  2312  2313     9
 2308  2309  2312  2314     9
 2308  2309  2312  2336     9
 2310  2309  2312  2313     9
 2310  2309  2312  2314     9
 2310  2309  2312  2336     9
 2311  2309  2312  2313     9
 2311  2309  2312  2314     9
 2311  2309  2312  2336     9
 2309  2312  2314  2315     9
 2313  2312  2314  2315     9
 2309  2312  2336  2332     9
 2309  2312  2336  2337     9
 2309  2312  2336  2338     9
 2313  2312  2336  2332     9
 2313  2312  2336  2337     9
 2313  2312  2336  2338     9
 2314  2312  2336  2332     9
 2314  2312  2336  2337     9
 2314  2312  2336  2338     9
 2315  2314  2312  2336     9
 2312  2314  2315  2316     9
 2312  2314  2315  2317     9
 2312  2314  2315  2332     9
 2314  2315  2317  2318     9
 2314  2315  2317  2330     9
 2316  2315  2317  2318     9
 2316  2315  2317  2330     9
 2314  2315  2332  2333     9
 2314  2315  2332  2334     9
 2314  2315  2332  2336     9
 2316  2315  2332  2333     9
 2316  2315  2332  2334     9
 2316  2315  2332  2336     9
 2317  2315  2332  2333     9
 2317  2315  2332  2334     9
 2317  2315  2332  2336     9
 2318  2317  2315  2332     9
 2330  2317  2315  2332     9
 2315  2317  2318  2322     9
 2315  2317  2318  2328     9
 2315  2317  2330  2329     9
 2315  2317  2330  2331     9
 2318  2317  2330  2329     9
 2318  2317  2330  2331     9
 2322  2318  2317  2330     9
 2328  2318  2317  2330     9
 2317  2318  2322  2323     9
 2317  2318  2328  2326     9
 2317  2318  2328  2329     9
 2322  2318  2328  2326     9
 2322  2318  2328  2329     9
 2320  2319  2323  2322     9
 2320  2319  2323  2324     9
 2321  2319  2323  2322     9
 2321  2319  2323  2324     9
 2323  2322  2318  2328     9
 2318  2322  2323  2319     9
 2318  2322  2323  2324     9
 2319  2323  2324  2325     9
 2319  2323  2324  2326     9
 2322  2323  2324  2325     9
 2322  2323  2324  2326     9
 2323  2324  2326  2327     9
 2323  2324  2326  2328     9
 2325  2324  2326  2327     9
 2325  2324  2326  2328     9
 2324  2326  2328  2329     9
 2327  2326  2328  2329     9
 2318  2328  2326  2324     9
 2318  2328  2326  2327     9
 2318  2328  2329  2330     9
 2326  2328  2329  2330     9
 2328  2329  2330  2331     9
 2317  2330  2329  2328     9
 2315  2332  2334  2335     9
 2333  2332  2334  2335     9
 2315  2332  2336  2337     9
 2315  2332  2336  2338     9
 2333  2332  2336  2337     9
 2333  2332  2336  2338     9
 2334  2332  2336  2337     9
 2334  2332  2336  2338     9
 2335  2334  2332  2336     9
 2312  2336  2332  2315     9
 2312  2336  2332  2333     9
 2312  2336  2332  2334     9
 2312  2336  2338  2339     9
 2332  2336  2338  2339     9
 2337  2336  2338  2339     9
 2336  2338  2339  2340     9
 2336  2338  2339  2341     9
 2336  2338  2339  2342     9
 2338  2339  2342  2343     9
 2340  2339  2342  2343     9
 2341  2339  2342  2343     9
 2339  2342  2343  2344     9
 2339  2342  2343  2345     9
 2339  2342  2343  2346     9
 2342  2343  2346  2347     9
 2342  2343  2346  2348     9
 2342  2343  2346  2367     9
 2344  2343  2346  2347     9
 2344  2343  2346  2348     9
 2344  2343  2346  2367     9
 2345  2343  2346  2347     9
 2345  2343  2346  2348     9
 2345  2343  2346  2367     9
 2343  2346  2348  2349     9
 2347  2346  2348  2349     9
 2343  2346  2367  2363     9
 2343  2346  2367  2368     9
 2343  2346  2367  2369     9
 2347  2346  2367  2363     9
 2347  2346  2367  2368     9
 2347  2346  2367  2369     9
 2348  2346  2367  2363     9
 2348  2346  2367  2368     9
 2348  2346  2367  2369     9
 2349  2348  2346  2367     9
 2346  2348  2349  2350     9
 2346  2348  2349  2351     9
 2346  2348  2349  2363     9
 2348  2349  2351  2352     9
 2348  2349  2351  2356     9
 2350  2349  2351  2352     9
 2350  2349  2351  2356     9
 2348  2349  2363  2364     9
 2348  2349  2363  2365     9
 2348  2349  2363  2367     9
 2350  2349  2363  2364     9
 2350  2349  2363  2365     9
 2350  2349  2363  2367     9
 2351  2349  2363  2364     9
 2351  2349  2363  2365     9
 2351  2349  2363  2367     9
 2352  2351  2349  2363     9
 2356  2351  2349  2363     9
 2349  2351  2352  2353     9
 2349  2351  2352  2354     9
 2349  2351  2356  2357     9
 2349  2351  2356  2358     9
 2352  2351  2356  2357     9
 2352  2351  2356  2358     9
 2353  2352  2351  2356     9
 2354  2352  2351  2356     9
 2351  2352  2354  2355     9
 2351  2352  2354  2359     9
 2353  2352  2354  2355     9
 2353  2352  2354  2359     9
 2352  2354  2359  2358     9
 2352  2354  2359  2360     9
 2355  2354  2359  2358     9
 2355  2354  2359  2360     9
 2351  2356  2358  2359     9
 2357  2356  2358  2359     9
 2356  2358  2359  2360     9
 2354  2359  2358  2356     9
 2354  2359  2360  2361     9
 2354  2359  2360  2362     9
 2358  2359  2360  2361     9
 2358  2359  2360  2362     9
 2349  2363  2365  2366     9
 2364  2363  2365  2366     9
 2349  2363  2367  2368     9
 2349  2363  2367  2369     9
 2364  2363  2367  2368     9
 2364  2363  2367  2369     9
 2365  2363  2367  2368     9
 2365  2363  2367  2369     9
 2366  2365  2363  2367     9
 2346  2367  2363  2349     9
 2346  2367  2363  2364     9
 2346  2367  2363  2365     9
 2346  2367  2369  2370     9
 2363  2367  2369  2370     9
 2368  2367  2369  2370     9
 2367  2369  2370  2371     9
 2367  2369  2370  2372     9
 2367  2369  2370  2373     9
 2369  2370  2373  2374     9
 2371  2370  2373  2374     9
 2372  2370  2373  2374     9
 2370  2373  2374  2375     9
 2370  2373  2374  2376     9
 2370  2373  2374  2377     9
 2373  2374  2377  2378     9
 2373  2374  2377  2379     9
 2373  2374  2377  2401     9
 2375  2374  2377  2378     9
 2375  2374  2377  2379     9
 2375  2374  2377  2401     9
 2376  2374  2377  2378     9
 2376  2374  2377  2379     9
 2376  2374  2377  2401     9
 2374  2377  2379  2380     9
 2378  2377  2379  2380     9
 2374  2377  2401  2397     9
 2374  2377  2401  2402     9
 2374  2377  2401  2403     9
 2378  2377  2401  2397     9
 2378  2377  2401  2402     9
 2378  2377  2401  2403     9
 2379  2377  2401  2397     9
 2379  2377  2401  2402     9
 2379  2377  2401  2403     9
 2380  2379  2377  2401     9
 2377  2379  2380  2381     9
 2377  2379  2380  2382     9
 2377  2379  2380  2397     9
 2379  2380  2382  2383     9
 2379  2380  2382  2395     9
 2381  2380  2382  2383     9
 2381  2380  2382  2395     9
 2379  2380  2397  2398     9
 2379  2380  2397  2399     9
 2379  2380  2397  2401     9
 2381  2380  2397  2398     9
 2381  2380  2397  2399     9
 2381  2380  2397  2401     9
 2382  2380  2397  2398     9
 2382  2380  2397  2399     9
 2382  2380  2397  2401     9
 2383  2382  2380  2397     9
 2395  2382  2380  2397     9
 2380  2382  2383  2387     9
 2380  2382  2383  2393     9
 2380  2382  2395  2394     9
 2380  2382  2395  2396     9
 2383  2382  2395  2394     9
 2383  2382  2395  2396     9
 2387  2383  2382  2395     9
 2393  2383  2382  2395     9
 2382  2383  2387  2388     9
 2382  2383  2393  2391     9
 2382  2383  2393  2394     9
 2387  2383  2393  2391     9
 2387  2383  2393  2394     9
 2385  2384  2388  2387     9
 2385  2384  2388  2389     9
 2386  2384  2388  2387     9
 2386  2384  2388  2389     9
 2388  2387  2383  2393     9
 2383  2387  2388  2384     9
 2383  2387  2388  2389     9
 2384  2388  2389  2390     9
 2384  2388  2389  2391     9
 2387  2388  2389  2390     9
 2387  2388  2389  2391     9
 2388  2389  2391  2392     9
 2388  2389  2391  2393     9
 2390  2389  2391  2392     9
 2390  2389  2391  2393     9
 2389  2391  2393  2394     9
 2392  2391  2393  2394     9
 2383  2393  2391  2389     9
 2383  2393  2391  2392     9
 2383  2393  2394  2395     9
 2391  2393  2394  2395     9
 2393  2394  2395  2396     9
 2382  2395  2394  2393     9
 2380  2397  2399  2400     9
 2398  2397  2399  2400     9
 2380  2397  2401  2402     9
 2380  2397  2401  2403     9
 2398  2397  2401  2402     9
 2398  2397  2401  2403     9
 2399  2397  2401  2402     9
 2399  2397  2401  2403     9
 2400  2399  2397  2401     9
 2377  2401  2397  2380     9
 2377  2401  2397  2398     9
 2377  2401  2397  2399     9
 2377  2401  2403  2404     9
 2397  2401  2403  2404     9
 2402  2401  2403  2404     9
 2401  2403  2404  2405     9
 2401  2403  2404  2406     9
 2401  2403  2404  2407     9
 2403  2404  2407  2408     9
 2405  2404  2407  2408     9
 2406  2404  2407  2408     9
 2404  2407  2408  2409     9
 2404  2407  2408  2410     9
 2404  2407  2408  2411     9
 2407  2408  2411  2412     9
 2407  2408  2411  2413     9
 2407  2408  2411  2431     9
 2409  2408  2411  2412     9
 2409  2408  2411  2413     9
 2409  2408  2411  2431     9
 2410  2408  2411  2412     9
 2410  2408  2411  2413     9
 2410  2408  2411  2431     9
 2408  2411  2413  2414     9
 2412  2411  2413  2414     9
 2408  2411  2431  2427     9
 2408  2411  2431  2432     9
 2408  2411  2431  2433     9
 2412  2411  2431  2427     9
 2412  2411  2431  2432     9
 2412  2411  2431  2433     9
 2413  2411  2431  2427     9
 2413  2411  2431  2432     9
 2413  2411  2431  2433     9
 2414  2413  2411  2431     9
 2411  2413  2414  2415     9
 2411  2413  2414  2416     9
 2411  2413  2414  2427     9
 2413  2414  2416  2417     9
 2413  2414  2416  2419     9
 2415  2414  2416  2417     9
 2415  2414  2416  2419     9
 2413  2414  2427  2428     9
 2413  2414  2427  2429     9
 2413  2414  2427  2431     9
 2415  2414  2427  2428     9
 2415  2414  2427  2429     9
 2415  2414  2427  2431     9
 2416  2414  2427  2428     9
 2416  2414  2427  2429     9
 2416  2414  2427  2431     9
 2417  2416  2414  2427     9
 2419  2416  2414  2427     9
 2414  2416  2417  2418     9
 2414  2416  2417  2425     9
 2419  2416  2417  2425     9
 2414  2416  2419  2420     9
 2414  2416  2419  2421     9
 2417  2416  2419  2420     9
 2417  2416  2419  2421     9
 2418  2417  2416  2419     9
 2416  2417  2425  2423     9
 2416  2417  2425  2426     9
 2418  2417  2425  2423     9
 2418  2417  2425  2426     9
 2416  2419  2421  2422     9
 2416  2419  2421  2423     9
 2420  2419  2421  2422     9
 2420  2419  2421  2423     9
 2419  2421  2423  2424     9
 2419  2421  2423  2425     9
 2422  2421  2423  2424     9
 2422  2421  2423  2425     9
 2421  2423  2425  2426     9
 2424  2423  2425  2426     9
 2417  2425  2423  2421     9
 2417  2425  2423  2424     9
 2414  2427  2429  2430     9
 2428  2427  2429  2430     9
 2414  2427  2431  2432     9
 2414  2427  2431  2433     9
 2428  2427  2431  2432     9
 2428  2427  2431  2433     9
 2429  2427  2431  2432     9
 2429  2427  2431  2433     9
 2430  2429  2427  2431     9
 2411  2431  2427  2414     9
 2411  2431  2427  2428     9
 2411  2431  2427  2429     9
 2411  2431  2433  2434     9
 2427  2431  2433  2434     9
 2432  2431  2433  2434     9
 2431  2433  2434  2435     9
 2431  2433  2434  2436     9
 2431  2433  2434  2437     9
 2433  2434  2437  2438     9
 2435  2434  2437  2438     9
 2436  2434  2437  2438     9
 2434  2437  2438  2439     9
 2434  2437  2438  2440     9
 2434  2437  2438  2441     9
 2437  2438  2441  2442     9
 2437  2438  2441  2443     9
 2437  2438  2441  2464     9
 2439  2438  2441  2442     9
 2439  2438  2441  2443     9
 2439  2438  2441  2464     9
 2440  2438  2441  2442     9
 2440  2438  2441  2443     9
 2440  2438  2441  2464     9
 2438  2441  2443  2444     9
 2442  2441  2443  2444     9
 2438  2441  2464  2460     9
 2438  2441  2464  2465     9
 2438  2441  2464  2466     9
 2442  2441  2464  2460     9
 2442  2441  2464  2465     9
 2442  2441  2464  2466     9
 2443  2441  2464  2460     9
 2443  2441  2464  2465     9
 2443  2441  2464  2466     9
 2444  2443  2441  2464     9
 2441  2443  2444  2445     9
 2441  2443  2444  2446     9
 2441  2443  2444  2460     9
 2443  2444  2446  2449     9
 2443  2444  2446  2455     9
 2445  2444  2446  2449     9
 2445  2444  2446  2455     9
 2443  2444  2460  2461     9
 2443  2444  2460  2462     9
 2443  2444  2460  2464     9
 2445  2444  2460  2461     9
 2445  2444  2460  2462     9
 2445  2444  2460  2464     9
 2446  2444  2460  2461     9
 2446  2444  2460  2462     9
 2446  2444  2460  2464     9
 2449  2446  2444  2460     9
 2455  2446  2444  2460     9
 2444  2446  2449  2448     9
 2444  2446  2449  2450     9
 2444  2446  2455  2447     9
 2444  2446  2455  2454     9
 2449  2446  2455  2454     9
 2448  2447  2455  2454     9
 2448  2447  2456  2451     9
 2448  2447  2456  2457     9
 2455  2447  2456  2457     9
 2449  2448  2447  2455     9
 2449  2448  2447  2456     9
 2447  2448  2449  2450     9
 2448  2449  2446  2455     9
 2450  2449  2446  2455     9
 2446  2449  2448  2447     9
 2452  2451  2456  2457     9
 2453  2452  2451  2456     9
 2454  2452  2451  2456     9
 2451  2452  2454  2455     9
 2453  2452  2454  2455     9
 2447  2455  2446  2449     9
 2446  2455  2447  2448     9
 2446  2455  2447  2456     9
 2454  2455  2447  2456     9
 2446  2455  2454  2452     9
 2447  2455  2454  2452     9
 2451  2456  2447  2455     9
 2447  2456  2451  2452     9
 2447  2456  2457  2458     9
 2447  2456  2457  2459     9
 2451  2456  2457  2458     9
 2451  2456  2457  2459     9
 2444  2460  2462  2463     9
 2461  2460  2462  2463     9
 2444  2460  2464  2465     9
 2444  2460  2464  2466     9
 2461  2460  2464  2465     9
 2461  2460  2464  2466     9
 2462  2460  2464  2465     9
 2462  2460  2464  2466     9
 2463  2462  2460  2464     9
 2441  2464  2460  2444     9
 2441  2464  2460  2461     9
 2441  2464  2460  2462     9
 2441  2464  2466  2467     9
 2460  2464  2466  2467     9
 2465  2464  2466  2467     9
 2464  2466  2467  2468     9
 2464  2466  2467  2469     9
 2464  2466  2467  2470     9
 2466  2467  2470  2471     9
 2468  2467  2470  2471     9
 2469  2467  2470  2471     9
 2467  2470  2471  2472     9
 2467  2470  2471  2473     9
 2467  2470  2471  2474     9
 2470  2471  2474  2475     9
 2470  2471  2474  2476     9
 2470  2471  2474  2498     9
 2472  2471  2474  2475     9
 2472  2471  2474  2476     9
 2472  2471  2474  2498     9
 2473  2471  2474  2475     9
 2473  2471  2474  2476     9
 2473  2471  2474  2498     9
 2471  2474  2476  2477     9
 2475  2474  2476  2477     9
 2471  2474  2498  2494     9
 2471  2474  2498  2499     9
 2471  2474  2498  2500     9
 2475  2474  2498  2494     9
 2475  2474  2498  2499     9
 2475  2474  2498  2500     9
 2476  2474  2498  2494     9
 2476  2474  2498  2499     9
 2476  2474  2498  2500     9
 2477  2476  2474  2498     9
 2474  2476  2477  2478     9
 2474  2476  2477  2479     9
 2474  2476  2477  2494     9
 2476  2477  2479  2480     9
 2476  2477  2479  2492     9
 2478  2477  2479  2480     9
 2478  2477  2479  2492     9
 2476  2477  2494  2495     9
 2476  2477  2494  2496     9
 2476  2477  2494  2498     9
 2478  2477  2494  2495     9
 2478  2477  2494  2496     9
 2478  2477  2494  2498     9
 2479  2477  2494  2495     9
 2479  2477  2494  2496     9
 2479  2477  2494  2498     9
 2480  2479  2477  2494     9
 2492  2479  2477  2494     9
 2477  2479  2480  2484     9
 2477  2479  2480  2490     9
 2477  2479  2492  2491     9
 2477  2479  2492  2493     9
 2480  2479  2492  2491     9
 2480  2479  2492  2493     9
 2484  2480  2479  2492     9
 2490  2480  2479  2492     9
 2479  2480  2484  2485     9
 2479  2480  2490  2488     9
 2479  2480  2490  2491     9
 2484  2480  2490  2488     9
 2484  2480  2490  2491     9
 2482  2481  2485  2484     9
 2482  2481  2485  2486     9
 2483  2481  2485  2484     9
 2483  2481  2485  2486     9
 2485  2484  2480  2490     9
 2480  2484  2485  2481     9
 2480  2484  2485  2486     9
 2481  2485  2486  2487     9
 2481  2485  2486  2488     9
 2484  2485  2486  2487     9
 2484  2485  2486  2488     9
 2485  2486  2488  2489     9
 2485  2486  2488  2490     9
 2487  2486  2488  2489     9
 2487  2486  2488  2490     9
 2486  2488  2490  2491     9
 2489  2488  2490  2491     9
 2480  2490  2488  2486     9
 2480  2490  2488  2489     9
 2480  2490  2491  2492     9
 2488  2490  2491  2492     9
 2490  2491  2492  2493     9
 2479  2492  2491  2490     9
 2477  2494  2496  2497     9
 2495  2494  2496  2497     9
 2477  2494  2498  2499     9
 2477  2494  2498  2500     9
 2495  2494  2498  2499     9
 2495  2494  2498  2500     9
 2496  2494  2498  2499     9
 2496  2494  2498  2500     9
 2497  2496  2494  2498     9
 2474  2498  2494  2477     9
 2474  2498  2494  2495     9
 2474  2498  2494  2496     9
 2474  2498  2500  2501     9
 2494  2498  2500  2501     9
 2499  2498  2500  2501     9
 2498  2500  2501  2502     9
 2498  2500  2501  2503     9
 2498  2500  2501  2504     9
 2500  2501  2504  2505     9
 2502  2501  2504  2505     9
 2503  2501  2504  2505     9
 2501  2504  2505  2506     9
 2501  2504  2505  2507     9
 2501  2504  2505  2508     9
 2504  2505  2508  2509     9
 2504  2505  2508  2510     9
 2504  2505  2508  2532     9
 2506  2505  2508  2509     9
 2506  2505  2508  2510     9
 2506  2505  2508  2532     9
 2507  2505  2508  2509     9
 2507  2505  2508  2510     9
 2507  2505  2508  2532     9
 2505  2508  2510  2511     9
 2509  2508  2510  2511     9
 2505  2508  2532  2528     9
 2505  2508  2532  2533     9
 2505  2508  2532  2534     9
 2509  2508  2532  2528     9
 2509  2508  2532  2533     9
 2509  2508  2532  2534     9
 2510  2508  2532  2528     9
 2510  2508  2532  2533     9
 2510  2508  2532  2534     9
 2511  2510  2508  2532     9
 2508  2510  2511  2512     9
 2508  2510  2511  2513     9
 2508  2510  2511  2528     9
 2510  2511  2513  2514     9
 2510  2511  2513  2526     9
 2512  2511  2513  2514     9
 2512  2511  2513  2526     9
 2510  2511  2528  2529     9
 2510  2511  2528  2530     9
 2510  2511  2528  2532     9
 2512  2511  2528  2529     9
 2512  2511  2528  2530     9
 2512  2511  2528  2532     9
 2513  2511  2528  2529     9
 2513  2511  2528  2530     9
 2513  2511  2528  2532     9
 2514  2513  2511  2528     9
 2526  2513  2511  2528     9
 2511  2513  2514  2518     9
 2511  2513  2514  2524     9
 2511  2513  2526  2525     9
 2511  2513  2526  2527     9
 2514  2513  2526  2525     9
 2514  2513  2526  2527     9
 2518  2514  2513  2526     9
 2524  2514  2513  2526     9
 2513  2514  2518  2519     9
 2513  2514  2524  2522     9
 2513  2514  2524  2525     9
 2518  2514  2524  2522     9
 2518  2514  2524  2525     9
 2516  2515  2519  2518     9
 2516  2515  2519  2520     9
 2517  2515  2519  2518     9
 2517  2515  2519  2520     9
 2519  2518  2514  2524     9
 2514  2518  2519  2515     9
 2514  2518  2519  2520     9
 2515  2519  2520  2521     9
 2515  2519  2520  2522     9
 2518  2519  2520  2521     9
 2518  2519  2520  2522     9
 2519  2520  2522  2523     9
 2519  2520  2522  2524     9
 2521  2520  2522  2523     9
 2521  2520  2522  2524     9
 2520  2522  2524  2525     9
 2523  2522  2524  2525     9
 2514  2524  2522  2520     9
 2514  2524  2522  2523     9
 2514  2524  2525  2526     9
 2522  2524  2525  2526     9
 2524  2525  2526  2527     9
 2513  2526  2525  2524     9
 2511  2528  2530  2531     9
 2529  2528  2530  2531     9
 2511  2528  2532  2533     9
 2511  2528  2532  2534     9
 2529  2528  2532  2533     9
 2529  2528  2532  2534     9
 2530  2528  2532  2533     9
 2530  2528  2532  2534     9
 2531  2530  2528  2532     9
 2508  2532  2528  2511     9
 2508  2532  2528  2529     9
 2508  2532  2528  2530     9
 2508  2532  2534  2535     9
 2528  2532  2534  2535     9
 2533  2532  2534  2535     9
 2532  2534  2535  2536     9
 2532  2534  2535  2537     9
 2532  2534  2535  2538     9
 2534  2535  2538  2539     9
 2536  2535  2538  2539     9
 2537  2535  2538  2539     9
 2535  2538  2539  2540     9
 2535  2538  2539  2541     9
 2535  2538  2539  2542     9
 2538  2539  2542  2543     9
 2538  2539  2542  2544     9
 2538  2539  2542  2566     9
 2540  2539  2542  2543     9
 2540  2539  2542  2544     9
 2540  2539  2542  2566     9
 2541  2539  2542  2543     9
 2541  2539  2542  2544     9
 2541  2539  2542  2566     9
 2539  2542  2544  2545     9
 2543  2542  2544  2545     9
 2539  2542  2566  2562     9
 2539  2542  2566  2567     9
 2539  2542  2566  2568     9
 2543  2542  2566  2562     9
 2543  2542  2566  2567     9
 2543  2542  2566  2568     9
 2544  2542  2566  2562     9
 2544  2542  2566  2567     9
 2544  2542  2566  2568     9
 2545  2544  2542  2566     9
 2542  2544  2545  2546     9
 2542  2544  2545  2547     9
 2542  2544  2545  2562     9
 2544  2545  2547  2548     9
 2544  2545  2547  2560     9
 2546  2545  2547  2548     9
 2546  2545  2547  2560     9
 2544  2545  2562  2563     9
 2544  2545  2562  2564     9
 2544  2545  2562  2566     9
 2546  2545  2562  2563     9
 2546  2545  2562  2564     9
 2546  2545  2562  2566     9
 2547  2545  2562  2563     9
 2547  2545  2562  2564     9
 2547  2545  2562  2566     9
 2548  2547  2545  2562     9
 2560  2547  2545  2562     9
 2545  2547  2548  2552     9
 2545  2547  2548  2558     9
 2545  2547  2560  2559     9
 2545  2547  2560  2561     9
 2548  2547  2560  2559     9
 2548  2547  2560  2561     9
 2552  2548  2547  2560     9
 2558  2548  2547  2560     9
 2547  2548  2552  2553     9
 2547  2548  2558  2556     9
 2547  2548  2558  2559     9
 2552  2548  2558  2556     9
 2552  2548  2558  2559     9
 2550  2549  2553  2552     9
 2550  2549  2553  2554     9
 2551  2549  2553  2552     9
 2551  2549  2553  2554     9
 2553  2552  2548  2558     9
 2548  2552  2553  2549     9
 2548  2552  2553  2554     9
 2549  2553  2554  2555     9
 2549  2553  2554  2556     9
 2552  2553  2554  2555     9
 2552  2553  2554  2556     9
 2553  2554  2556  2557     9
 2553  2554  2556  2558     9
 2555  2554  2556  2557     9
 2555  2554  2556  2558     9
 2554  2556  2558  2559     9
 2557  2556  2558  2559     9
 2548  2558  2556  2554     9
 2548  2558  2556  2557     9
 2548  2558  2559  2560     9
 2556  2558  2559  2560     9
 2558  2559  2560  2561     9
 2547  2560  2559  2558     9
 2545  2562  2564  2565     9
 2563  2562  2564  2565     9
 2545  2562  2566  2567     9
 2545  2562  2566  2568     9
 2563  2562  2566  2567     9
 2563  2562  2566  2568     9
 2564  2562  2566  2567     9
 2564  2562  2566  2568     9
 2565  2564  2562  2566     9
 2542  2566  2562  2545     9
 2542  2566  2562  2563     9
 2542  2566  2562  2564     9
 2542  2566  2568  2569     9
 2562  2566  2568  2569     9
 2567  2566  2568  2569     9
 2566  2568  2569  2570     9
 2566  2568  2569  2571     9
 2566  2568  2569  2572     9
 2568  2569  2572  2573     9
 2570  2569  2572  2573     9
 2571  2569  2572  2573     9
 2569  2572  2573  2574     9
 2569  2572  2573  2575     9
 2569  2572  2573  2576     9
 2572  2573  2576  2577     9
 2572  2573  2576  2578     9
 2572  2573  2576  2599     9
 2574  2573  2576  2577     9
 2574  2573  2576  2578     9
 2574  2573  2576  2599     9
 2575  2573  2576  2577     9
 2575  2573  2576  2578     9
 2575  2573  2576  2599     9
 2573  2576  2578  2579     9
 2577  2576  2578  2579     9
 2573  2576  2599  2595     9
 2573  2576  2599  2600     9
 2573  2576  2599  2601     9
 2577  2576  2599  2595     9
 2577  2576  2599  2600     9
 2577  2576  2599  2601     9
 2578  2576  2599  2595     9
 2578  2576  2599  2600     9
 2578  2576  2599  2601     9
 2579  2578  2576  2599     9
 2576  2578  2579  2580     9
 2576  2578  2579  2581     9
 2576  2578  2579  2595     9
 2578  2579  2581  2584     9
 2578  2579  2581  2590     9
 2580  2579  2581  2584     9
 2580  2579  2581  2590     9
 2578  2579  2595  2596     9
 2578  2579  2595  2597     9
 2578  2579  2595  2599     9
 2580  2579  2595  2596     9
 2580  2579  2595  2597     9
 2580  2579  2595  2599     9
 2581  2579  2595  2596     9
 2581  2579  2595  2597     9
 2581  2579  2595  2599     9
 2584  2581  2579  2595     9
 2590  2581  2579  2595     9
 2579  2581  2584  2583     9
 2579  2581  2584  2585     9
 2579  2581  2590  2582     9
 2579  2581  2590  2589     9
 2584  2581  2590  2589     9
 2583  2582  2590  2589     9
 2583  2582  2591  2586     9
 2583  2582  2591  2592     9
 2590  2582  2591  2592     9
 2584  2583  2582  2590     9
 2584  2583  2582  2591     9
 2582  2583  2584  2585     9
 2583  2584  2581  2590     9
 2585  2584  2581  2590     9
 2581  2584  2583  2582     9
 2587  2586  2591  2592     9
 2588  2587  2586  2591     9
 2589  2587  2586  2591     9
 2586  2587  2589  2590     9
 2588  2587  2589  2590     9
 2582  2590  2581  2584     9
 2581  2590  2582  2583     9
 2581  2590  2582  2591     9
 2589  2590  2582  2591     9
 2581  2590  2589  2587     9
 2582  2590  2589  2587     9
 2586  2591  2582  2590     9
 2582  2591  2586  2587     9
 2582  2591  2592  2593     9
 2582  2591  2592  2594     9
 2586  2591  2592  2593     9
 2586  2591  2592  2594     9
 2579  2595  2597  2598     9
 2596  2595  2597  2598     9
 2579  2595  2599  2600     9
 2579  2595  2599  2601     9
 2596  2595  2599  2600     9
 2596  2595  2599  2601     9
 2597  2595  2599  2600     9
 2597  2595  2599  2601     9
 2598  2597  2595  2599     9
 2576  2599  2595  2579     9
 2576  2599  2595  2596     9
 2576  2599  2595  2597     9
 2576  2599  2601  2602     9
 2595  2599  2601  2602     9
 2600  2599  2601  2602     9
 2599  2601  2602  2603     9
 2599  2601  2602  2604     9
 2599  2601  2602  2605     9
 2601  2602  2605  2606     9
 2603  2602  2605  2606     9
 2604  2602  2605  2606     9
 2602  2605  2606  2607     9
 2602  2605  2606  2608     9
 2602  2605  2606  2609     9
 2605  2606  2609  2610     9
 2605  2606  2609  2611     9
 2605  2606  2609  2632     9
 2607  2606  2609  2610     9
 2607  2606  2609  2611     9
 2607  2606  2609  2632     9
 2608  2606  2609  2610     9
 2608  2606  2609  2611     9
 2608  2606  2609  2632     9
 2606  2609  2611  2612     9
 2610  2609  2611  2612     9
 2606  2609  2632  2628     9
 2606  2609  2632  2633     9
 2606  2609  2632  2634     9
 2610  2609  2632  2628     9
 2610  2609  2632  2633     9
 2610  2609  2632  2634     9
 2611  2609  2632  2628     9
 2611  2609  2632  2633     9
 2611  2609  2632  2634     9
 2612  2611  2609  2632     9
 2609  2611  2612  2613     9
 2609  2611  2612  2614     9
 2609  2611  2612  2628     9
 2611  2612  2614  2617     9
 2611  2612  2614  2623     9
 2613  2612  2614  2617     9
 2613  2612  2614  2623     9
 2611  2612  2628  2629     9
 2611  2612  2628  2630     9
 2611  2612  2628  2632     9
 2613  2612  2628  2629     9
 2613  2612  2628  2630     9
 2613  2612  2628  2632     9
 2614  2612  2628  2629     9
 2614  2612  2628  2630     9
 2614  2612  2628  2632     9
 2617  2614  2612  2628     9
 2623  2614  2612  2628     9
 2612  2614  2617  2616     9
 2612  2614  2617  2618     9
 2612  2614  2623  2615     9
 2612  2614  2623  2622     9
 2617  2614  2623  2622     9
 2616  2615  2623  2622     9
 2616  2615  2624  2619     9
 2616  2615  2624  2625     9
 2623  2615  2624  2625     9
 2617  2616  2615  2623     9
 2617  2616  2615  2624     9
 2615  2616  2617  2618     9
 2616  2617  2614  2623     9
 2618  2617  2614  2623     9
 2614  2617  2616  2615     9
 2620  2619  2624  2625     9
 2621  2620  2619  2624     9
 2622  2620  2619  2624     9
 2619  2620  2622  2623     9
 2621  2620  2622  2623     9
 2615  2623  2614  2617     9
 2614  2623  2615  2616     9
 2614  2623  2615  2624     9
 2622  2623  2615  2624     9
 2614  2623  2622  2620     9
 2615  2623  2622  2620     9
 2619  2624  2615  2623     9
 2615  2624  2619  2620     9
 2615  2624  2625  2626     9
 2615  2624  2625  2627     9
 2619  2624  2625  2626     9
 2619  2624  2625  2627     9
 2612  2628  2630  2631     9
 2629  2628  2630  2631     9
 2612  2628  2632  2633     9
 2612  2628  2632  2634     9
 2629  2628  2632  2633     9
 2629  2628  2632  2634     9
 2630  2628  2632  2633     9
 2630  2628  2632  2634     9
 2631  2630  2628  2632     9
 2609  2632  2628  2612     9
 2609  2632  2628  2629     9
 2609  2632  2628  2630     9
 2609  2632  2634  2635     9
 2628  2632  2634  2635     9
 2633  2632  2634  2635     9
 2632  2634  2635  2636     9
 2632  2634  2635  2637     9
 2632  2634  2635  2638     9
 2634  2635  2638  2639     9
 2636  2635  2638  2639     9
 2637  2635  2638  2639     9
 2635  2638  2639  2640     9
 2635  2638  2639  2641     9
 2635  2638  2639  2642     9
 2638  2639  2642  2643     9
 2638  2639  2642  2644     9
 2638  2639  2642  2666     9
 2640  2639  2642  2643     9
 2640  2639  2642  2644     9
 2640  2639  2642  2666     9
 2641  2639  2642  2643     9
 2641  2639  2642  2644     9
 2641  2639  2642  2666     9
 2639  2642  2644  2645     9
 2643  2642  2644  2645     9
 2639  2642  2666  2662     9
 2639  2642  2666  2667     9
 2639  2642  2666  2668     9
 2643  2642  2666  2662     9
 2643  2642  2666  2667     9
 2643  2642  2666  2668     9
 2644  2642  2666  2662     9
 2644  2642  2666  2667     9
 2644  2642  2666  2668     9
 2645  2644  2642  2666     9
 2642  2644  2645  2646     9
 2642  2644  2645  2647     9
 2642  2644  2645  2662     9
 2644  2645  2647  2648     9
 2644  2645  2647  2660     9
 2646  2645  2647  2648     9
 2646  2645  2647  2660     9
 2644  2645  2662  2663     9
 2644  2645  2662  2664     9
 2644  2645  2662  2666     9
 2646  2645  2662  2663     9
 2646  2645  2662  2664     9
 2646  2645  2662  2666     9
 2647  2645  2662  2663     9
 2647  2645  2662  2664     9
 2647  2645  2662  2666     9
 2648  2647  2645  2662     9
 2660  2647  2645  2662     9
 2645  2647  2648  2652     9
 2645  2647  2648  2658     9
 2645  2647  2660  2659     9
 2645  2647  2660  2661     9
 2648  2647  2660  2659     9
 2648  2647  2660  2661     9
 2652  2648  2647  2660     9
 2658  2648  2647  2660     9
 2647  2648  2652  2653     9
 2647  2648  2658  2656     9
 2647  2648  2658  2659     9
 2652  2648  2658  2656     9
 2652  2648  2658  2659     9
 2650  2649  2653  2652     9
 2650  2649  2653  2654     9
 2651  2649  2653  2652     9
 2651  2649  2653  2654     9
 2653  2652  2648  2658     9
 2648  2652  2653  2649     9
 2648  2652  2653  2654     9
 2649  2653  2654  2655     9
 2649  2653  2654  2656     9
 2652  2653  2654  2655     9
 2652  2653  2654  2656     9
 2653  2654  2656  2657     9
 2653  2654  2656  2658     9
 2655  2654  2656  2657     9
 2655  2654  2656  2658     9
 2654  2656  2658  2659     9
 2657  2656  2658  2659     9
 2648  2658  2656  2654     9
 2648  2658  2656  2657     9
 2648  2658  2659  2660     9
 2656  2658  2659  2660     9
 2658  2659  2660  2661     9
 2647  2660  2659  2658     9
 2645  2662  2664  2665     9
 2663  2662  2664  2665     9
 2645  2662  2666  2667     9
 2645  2662  2666  2668     9
 2663  2662  2666  2667     9
 2663  2662  2666  2668     9
 2664  2662  2666  2667     9
 2664  2662  2666  2668     9
 2665  2664  2662  2666     9
 2642  2666  2662  2645     9
 2642  2666  2662  2663     9
 2642  2666  2662  2664     9
 2642  2666  2668  2669     9
 2662  2666  2668  2669     9
 2667  2666  2668  2669     9
 2666  2668  2669  2670     9
 2666  2668  2669  2671     9
 2666  2668  2669  2672     9
 2668  2669  2672  2673     9
 2670  2669  2672  2673     9
 2671  2669  2672  2673     9
 2669  2672  2673  2674     9
 2669  2672  2673  2675     9
 2669  2672  2673  2676     9
 2672  2673  2676  2677     9
 2672  2673  2676  2678     9
 2672  2673  2676  2696     9
 2674  2673  2676  2677     9
 2674  2673  2676  2678     9
 2674  2673  2676  2696     9
 2675  2673  2676  2677     9
 2675  2673  2676  2678     9
 2675  2673  2676  2696     9
 2673  2676  2678  2679     9
 2677  2676  2678  2679     9
 2673  2676  2696  2692     9
 2673  2676  2696  2697     9
 2673  2676  2696  2698     9
 2677  2676  2696  2692     9
 2677  2676  2696  2697     9
 2677  2676  2696  2698     9
 2678  2676  2696  2692     9
 2678  2676  2696  2697     9
 2678  2676  2696  2698     9
 2679  2678  2676  2696     9
 2676  2678  2679  2680     9
 2676  2678  2679  2681     9
 2676  2678  2679  2692     9
 2678  2679  2681  2682     9
 2678  2679  2681  2684     9
 2680  2679  2681  2682     9
 2680  2679  2681  2684     9
 2678  2679  2692  2693     9
 2678  2679  2692  2694     9
 2678  2679  2692  2696     9
 2680  2679  2692  2693     9
 2680  2679  2692  2694     9
 2680  2679  2692  2696     9
 2681  2679  2692  2693     9
 2681  2679  2692  2694     9
 2681  2679  2692  2696     9
 2682  2681  2679  2692     9
 2684  2681  2679  2692     9
 2679  2681  2682  2683     9
 2679  2681  2682  2690     9
 2684  2681  2682  2690     9
 2679  2681  2684  2685     9
 2679  2681  2684  2686     9
 2682  2681  2684  2685     9
 2682  2681  2684  2686     9
 2683  2682  2681  2684     9
 2681  2682  2690  2688     9
 2681  2682  2690  2691     9
 2683  2682  2690  2688     9
 2683  2682  2690  2691     9
 2681  2684  2686  2687     9
 2681  2684  2686  2688     9
 2685  2684  2686  2687     9
 2685  2684  2686  2688     9
 2684  2686  2688  2689     9
 2684  2686  2688  2690     9
 2687  2686  2688  2689     9
 2687  2686  2688  2690     9
 2686  2688  2690  2691     9
 2689  2688  2690  2691     9
 2682  2690  2688  2686     9
 2682  2690  2688  2689     9
 2679  2692  2694  2695     9
 2693  2692  2694  2695     9
 2679  2692  2696  2697     9
 2679  2692  2696  2698     9
 2693  2692  2696  2697     9
 2693  2692  2696  2698     9
 2694  2692  2696  2697     9
 2694  2692  2696  2698     9
 2695  2694  2692  2696     9
 2676  2696  2692  2679     9
 2676  2696  2692  2693     9
 2676  2696  2692  2694     9
 2676  2696  2698  2699     9
 2692  2696  2698  2699     9
 2697  2696  2698  2699     9
 2696  2698  2699  2700     9
 2696  2698  2699  2701     9
 2696  2698  2699  2702     9
 2698  2699  2702  2703     9
 2700  2699  2702  2703     9
 2701  2699  2702  2703     9
 2699  2702  2703  2704     9
 2699  2702  2703  2705     9
 2699  2702  2703  2706     9
 2702  2703  2706  2707     9
 2702  2703  2706  2708     9
 2702  2703  2706  2727     9
 2704  2703  2706  2707     9
 2704  2703  2706  2708     9
 2704  2703  2706  2727     9
 2705  2703  2706  2707     9
 2705  2703  2706  2708     9
 2705  2703  2706  2727     9
 2703  2706  2708  2709     9
 2707  2706  2708  2709     9
 2703  2706  2727  2723     9
 2703  2706  2727  2728     9
 2703  2706  2727  2729     9
 2707  2706  2727  2723     9
 2707  2706  2727  2728     9
 2707  2706  2727  2729     9
 2708  2706  2727  2723     9
 2708  2706  2727  2728     9
 2708  2706  2727  2729     9
 2709  2708  2706  2727     9
 2706  2708  2709  2710     9
 2706  2708  2709  2711     9
 2706  2708  2709  2723     9
 2708  2709  2711  2712     9
 2708  2709  2711  2716     9
 2710  2709  2711  2712     9
 2710  2709  2711  2716     9
 2708  2709  2723  2724     9
 2708  2709  2723  2725     9
 2708  2709  2723  2727     9
 2710  2709  2723  2724     9
 2710  2709  2723  2725     9
 2710  2709  2723  2727     9
 2711  2709  2723  2724     9
 2711  2709  2723  2725     9
 2711  2709  2723  2727     9
 2712  2711  2709  2723     9
 2716  2711  2709  2723     9
 2709  2711  2712  2713     9
 2709  2711  2712  2714     9
 2709  2711  2716  2717     9
 2709  2711  2716  2718     9
 2712  2711  2716  2717     9
 2712  2711  2716  2718     9
 2713  2712  2711  2716     9
 2714  2712  2711  2716     9
 2711  2712  2714  2715     9
 2711  2712  2714  2719     9
 2713  2712  2714  2715     9
 2713  2712  2714  2719     9
 2712  2714  2719  2718     9
 2712  2714  2719  2720     9
 2715  2714  2719  2718     9
 2715  2714  2719  2720     9
 2711  2716  2718  2719     9
 2717  2716  2718  2719     9
 2716  2718  2719  2720     9
 2714  2719  2718  2716     9
 2714  2719  2720  2721     9
 2714  2719  2720  2722     9
 2718  2719  2720  2721     9
 2718  2719  2720  2722     9
 2709  2723  2725  2726     9
 2724  2723  2725  2726     9
 2709  2723  2727  2728     9
 2709  2723  2727  2729     9
 2724  2723  2727  2728     9
 2724  2723  2727  2729     9
 2725  2723  2727  2728     9
 2725  2723  2727  2729     9
 2726  2725  2723  2727     9
 2706  2727  2723  2709     9
 2706  2727  2723  2724     9
 2706  2727  2723  2725     9
 2706  2727  2729  2730     9
 2723  2727  2729  2730     9
 2728  2727  2729  2730     9
 2727  2729  2730  2731     9
 2727  2729  2730  2732     9
 2727  2729  2730  2733     9
 2729  2730  2733  2734     9
 2731  2730  2733  2734     9
 2732  2730  2733  2734     9
 2730  2733  2734  2735     9
 2730  2733  2734  2736     9
 2730  2733  2734  2737     9
 2733  2734  2737  2738     9
 2733  2734  2737  2739     9
 2733  2734  2737  2761     9
 2735  2734  2737  2738     9
 2735  2734  2737  2739     9
 2735  2734  2737  2761     9
 2736  2734  2737  2738     9
 2736  2734  2737  2739     9
 2736  2734  2737  2761     9
 2734  2737  2739  2740     9
 2738  2737  2739  2740     9
 2734  2737  2761  2757     9
 2734  2737  2761  2762     9
 2734  2737  2761  2763     9
 2738  2737  2761  2757     9
 2738  2737  2761  2762     9
 2738  2737  2761  2763     9
 2739  2737  2761  2757     9
 2739  2737  2761  2762     9
 2739  2737  2761  2763     9
 2740  2739  2737  2761     9
 2737  2739  2740  2741     9
 2737  2739  2740  2742     9
 2737  2739  2740  2757     9
 2739  2740  2742  2743     9
 2739  2740  2742  2755     9
 2741  2740  2742  2743     9
 2741  2740  2742  2755     9
 2739  2740  2757  2758     9
 2739  2740  2757  2759     9
 2739  2740  2757  2761     9
 2741  2740  2757  2758     9
 2741  2740  2757  2759     9
 2741  2740  2757  2761     9
 2742  2740  2757  2758     9
 2742  2740  2757  2759     9
 2742  2740  2757  2761     9
 2743  2742  2740  2757     9
 2755  2742  2740  2757     9
 2740  2742  2743  2747     9
 2740  2742  2743  2753     9
 2740  2742  2755  2754     9
 2740  2742  2755  2756     9
 2743  2742  2755  2754     9
 2743  2742  2755  2756     9
 2747  2743  2742  2755     9
 2753  2743  2742  2755     9
 2742  2743  2747  2748     9
 2742  2743  2753  2751     9
 2742  2743  2753  2754     9
 2747  2743  2753  2751     9
 2747  2743  2753  2754     9
 2745  2744  2748  2747     9
 2745  2744  2748  2749     9
 2746  2744  2748  2747     9
 2746  2744  2748  2749     9
 2748  2747  2743  2753     9
 2743  2747  2748  2744     9
 2743  2747  2748  2749     9
 2744  2748  2749  2750     9
 2744  2748  2749  2751     9
 2747  2748  2749  2750     9
 2747  2748  2749  2751     9
 2748  2749  2751  2752     9
 2748  2749  2751  2753     9
 2750  2749  2751  2752     9
 2750  2749  2751  2753     9
 2749  2751  2753  2754     9
 2752  2751  2753  2754     9
 2743  2753  2751  2749     9
 2743  2753  2751  2752     9
 2743  2753  2754  2755     9
 2751  2753  2754  2755     9
 2753  2754  2755  2756     9
 2742  2755  2754  2753     9
 2740  2757  2759  2760     9
 2758  2757  2759  2760     9
 2740  2757  2761  2762     9
 2740  2757  2761  2763     9
 2758  2757  2761  2762     9
 2758  2757  2761  2763     9
 2759  2757  2761  2762     9
 2759  2757  2761  2763     9
 2760  2759  2757  2761     9
 2737  2761  2757  2740     9
 2737  2761  2757  2758     9
 2737  2761  2757  2759     9
 2737  2761  2763  2764     9
 2757  2761  2763  2764     9
 2762  2761  2763  2764     9
 2761  2763  2764  2765     9
 2761  2763  2764  2766     9
 2761  2763  2764  2767     9
 2763  2764  2767  2768     9
 2765  2764  2767  2768     9
 2766  2764  2767  2768     9
 2764  2767  2768  2769     9
 2764  2767  2768  2770     9
 2764  2767  2768  2771     9
 2767  2768  2771  2772     9
 2767  2768  2771  2773     9
 2767  2768  2771  2792     9
 2769  2768  2771  2772     9
 2769  2768  2771  2773     9
 2769  2768  2771  2792     9
 2770  2768  2771  2772     9
 2770  2768  2771  2773     9
 2770  2768  2771  2792     9
 2768  2771  2773  2774     9
 2772  2771  2773  2774     9
 2768  2771  2792  2788     9
 2768  2771  2792  2793     9
 2768  2771  2792  2794     9
 2772  2771  2792  2788     9
 2772  2771  2792  2793     9
 2772  2771  2792  2794     9
 2773  2771  2792  2788     9
 2773  2771  2792  2793     9
 2773  2771  2792  2794     9
 2774  2773  2771  2792     9
 2771  2773  2774  2775     9
 2771  2773  2774  2776     9
 2771  2773  2774  2788     9
 2773  2774  2776  2777     9
 2773  2774  2776  2781     9
 2775  2774  2776  2777     9
 2775  2774  2776  2781     9
 2773  2774  2788  2789     9
 2773  2774  2788  2790     9
 2773  2774  2788  2792     9
 2775  2774  2788  2789     9
 2775  2774  2788  2790     9
 2775  2774  2788  2792     9
 2776  2774  2788  2789     9
 2776  2774  2788  2790     9
 2776  2774  2788  2792     9
 2777  2776  2774  2788     9
 2781  2776  2774  2788     9
 2774  2776  2777  2778     9
 2774  2776  2777  2779     9
 2774  2776  2781  2782     9
 2774  2776  2781  2783     9
 2777  2776  2781  2782     9
 2777  2776  2781  2783     9
 2778  2777  2776  2781     9
 2779  2777  2776  2781     9
 2776  2777  2779  2780     9
 2776  2777  2779  2784     9
 2778  2777  2779  2780     9
 2778  2777  2779  2784     9
 2777  2779  2784  2783     9
 2777  2779  2784  2785     9
 2780  2779  2784  2783     9
 2780  2779  2784  2785     9
 2776  2781  2783  2784     9
 2782  2781  2783  2784     9
 2781  2783  2784  2785     9
 2779  2784  2783  2781     9
 2779  2784  2785  2786     9
 2779  2784  2785  2787     9
 2783  2784  2785  2786     9
 2783  2784  2785  2787     9
 2774  2788  2790  2791     9
 2789  2788  2790  2791     9
 2774  2788  2792  2793     9
 2774  2788  2792  2794     9
 2789  2788  2792  2793     9
 2789  2788  2792  2794     9
 2790  2788  2792  2793     9
 2790  2788  2792  2794     9
 2791  2790  2788  2792     9
 2771  2792  2788  2774     9
 2771  2792  2788  2789     9
 2771  2792  2788  2790     9
 2771  2792  2794  2795     9
 2788  2792  2794  2795     9
 2793  2792  2794  2795     9

[ dihedrals ]
; ai	aj	ak	al	funct	q0	cq
   13    14    17    15     2
   17    16    18    13     2
   20    18    22    21     2
   50    45    52    51     2
   53    52    48    54     2
   54    53    55    56     2
   78    79    82    80     2
   82    81    83    78     2
   85    83    87    86     2
  120   115   111   121     2
  121   120   122   123     2
  148   143   150   149     2
  151   150   146   152     2
  152   151   153   154     2
  177   174   179   178     2
  181   179   183   182     2
  209   204   211   210     2
  212   211   207   213     2
  213   212   214   215     2
  237   238   241   239     2
  241   240   242   237     2
  244   242   246   245     2
  271   272   275   273     2
  275   274   276   271     2
  278   276   280   279     2
  305   306   309   307     2
  309   308   310   305     2
  312   310   314   313     2
  339   340   343   341     2
  343   342   344   339     2
  346   344   348   347     2
  374   371   376   375     2
  378   376   380   379     2
  403   404   407   405     2
  407   406   408   403     2
  410   408   412   411     2
  440   435   442   441     2
  443   442   438   444     2
  444   443   445   446     2
  471   466   473   472     2
  474   473   469   475     2
  475   474   476   477     2
  502   497   504   503     2
  505   504   500   506     2
  506   505   507   508     2
  531   528   533   532     2
  535   533   537   536     2
  563   558   565   564     2
  566   565   561   567     2
  567   566   568   569     2
  594   589   596   595     2
  597   596   592   598     2
  598   597   599   600     2
  630   625   621   631     2
  631   630   632   633     2
  656   653   658   657     2
  660   658   662   661     2
  686   683   688   687     2
  690   688   692   691     2
  715   716   719   717     2
  719   718   720   715     2
  722   720   724   723     2
  752   747   754   753     2
  755   754   750   756     2
  756   755   757   758     2
  788   783   779   789     2
  789   788   790   791     2
  816   811   818   817     2
  819   818   814   820     2
  820   819   821   822     2
  845   842   847   846     2
  849   847   851   850     2
  877   872   879   878     2
  880   879   875   881     2
  881   880   882   883     2
  908   903   910   909     2
  911   910   906   912     2
  912   911   913   914     2
  936   937   940   938     2
  940   939   941   936     2
  943   941   945   944     2
  970   971   974   972     2
  974   973   975   970     2
  977   975   979   978     2
 1012  1007  1003  1013     2
 1013  1012  1014  1015     2
 1037  1038  1041  1039     2
 1041  1040  1042  1037     2
 1044  1042  1046  1045     2
 1071  1072  1075  1073     2
 1075  1074  1076  1071     2
 1078  1076  1080  1079     2
 1108  1103  1110  1109     2
 1111  1110  1106  1112     2
 1112  1111  1113  1114     2
 1137  1134  1139  1138     2
 1141  1139  1143  1142     2
 1166  1167  1170  1168     2
 1170  1169  1171  1166     2
 1173  1171  1175  1174     2
 1208  1203  1199  1209     2
 1209  1208  1210  1211     2
 1233  1234  1237  1235     2
 1237  1236  1238  1233     2
 1240  1238  1242  1241     2
 1275  1270  1266  1276     2
 1276  1275  1277  1278     2
 1308  1303  1299  1309     2
 1309  1308  1310  1311     2
 1341  1336  1332  1342     2
 1342  1341  1343  1344     2
 1367  1364  1369  1368     2
 1371  1369  1373  1372     2
 1404  1399  1395  1405     2
 1405  1404  1406  1407     2
 1432  1427  1434  1433     2
 1435  1434  1430  1436     2
 1436  1435  1437  1438     2
 1463  1458  1465  1464     2
 1466  1465  1461  1467     2
 1467  1466  1468  1469     2
 1494  1489  1496  1495     2
 1497  1496  1492  1498     2
 1498  1497  1499  1500     2
 1522  1523  1526  1524     2
 1526  1525  1527  1522     2
 1529  1527  1531  1530     2
 1557  1554  1559  1558     2
 1561  1559  1563  1562     2
 1594  1589  1585  1595     2
 1595  1594  1596  1597     2
 1620  1617  1622  1621     2
 1624  1622  1626  1625     2
 1652  1647  1654  1653     2
 1655  1654  1650  1656     2
 1656  1655  1657  1658     2
 1688  1683  1679  1689     2
 1689  1688  1690  1691     2
 1716  1711  1718  1717     2
 1719  1718  1714  1720     2
 1720  1719  1721  1722     2
 1747  1742  1749  1748     2
 1750  1749  1745  1751     2
 1751  1750  1752  1753     2
 1776  1773  1778  1777     2
 1780  1778  1782  1781     2
 1805  1806  1809  1807     2
 1809  1808  1810  1805     2
 1812  1810  1814  1813     2
 1847  1842  1838  1848     2
 1848  1847  1849  1850     2
 1873  1870  1875  1874     2
 1877  1875  1879  1878     2
 1905  1900  1907  1906     2
 1908  1907  1903  1909     2
 1909  1908  1910  1911     2
 1934  1931  1936  1935     2
 1938  1936  1940  1939     2
 1963  1964  1967  1965     2
 1967  1966  1968  1963     2
 1970  1968  1972  1971     2
 1997  1998  2001  1999     2
 2001  2000  2002  1997     2
 2004  2002  2006  2005     2
 2039  2034  2030  2040     2
 2040  2039  2041  2042     2
 2065  2062  2067  2066     2
 2069  2067  2071  2070     2
 2102  2097  2093  2103     2
 2103  2102  2104  2105     2
 2135  2130  2126  2136     2
 2136  2135  2137  2138     2
 2161  2158  2163  2162     2
 2165  2163  2167  2166     2
 2190  2191  2194  2192     2
 2194  2193  2195  2190     2
 2197  2195  2199  2198     2
 2227  2222  2229  2228     2
 2230  2229  2225  2231     2
 2231  2230  2232  2233     2
 2258  2253  2260  2259     2
 2261  2260  2256  2262     2
 2262  2261  2263  2264     2
 2294  2289  2285  2295     2
 2295  2294  2296  2297     2
 2319  2320  2323  2321     2
 2323  2322  2324  2319     2
 2326  2324  2328  2327     2
 2356  2351  2358  2357     2
 2359  2358  2354  2360     2
 2360  2359  2361  2362     2
 2384  2385  2388  2386     2
 2388  2387  2389  2384     2
 2391  2389  2393  2392     2
 2419  2416  2421  2420     2
 2423  2421  2425  2424     2
 2456  2451  2447  2457     2
 2457  2456  2458  2459     2
 2481  2482  2485  2483     2
 2485  2484  2486  2481     2
 2488  2486  2490  2489     2
 2515  2516  2519  2517     2
 2519  2518  2520  2515     2
 2522  2520  2524  2523     2
 2549  2550  2553  2551     2
 2553  2552  2554  2549     2
 2556  2554  2558  2557     2
 2591  2586  2582  2592     2
 2592  2591  2593  2594     2
 2624  2619  2615  2625     2
 2625  2624  2626  2627     2
 2649  2650  2653  2651     2
 2653  2652  2654  2649     2
 2656  2654  2658  2657     2
 2684  2681  2686  2685     2
 2688  2686  2690  2689     2
 2716  2711  2718  2717     2
 2719  2718  2714  2720     2
 2720  2719  2721  2722     2
 2744  2745  2748  2746     2
 2748  2747  2749  2744     2
 2751  2749  2753  2752     2
 2781  2776  2783  2782     2
 2784  2783  2779  2785     2
 2785  2784  2786  2787     2

#ifdef POSRES
[ position_restraints ]
    2     1    POSRES_FC_BB    POSRES_FC_BB    POSRES_FC_BB   
    3     1    POSRES_FC_BB    POSRES_FC_BB    POSRES_FC_BB   
    6     1    POSRES_FC_BB    POSRES_FC_BB    POSRES_FC_BB   
    8     1    POSRES_FC_SC    POSRES_FC_SC    POSRES_FC_SC   
    9     1    POSRES_FC_SC    POSRES_FC_SC    POSRES_FC_SC   
   11     1    POSRES_FC_SC    POSRES_FC_SC    POSRES_FC_SC   
   12     1    POSRES_FC_SC    POSRES_FC_SC    POSRES_FC_SC   
   13     1    POSRES_FC_SC    POSRES_FC_SC    POSRES_FC_SC   
   16     1    POSRES_FC_SC    POSRES_FC_SC    POSRES_FC_SC   
   17     1    POSRES_FC_SC    POSRES_FC_SC    POSRES_FC_SC   
   18     1    POSRES_FC_SC    POSRES_FC_SC    POSRES_FC_SC   
   20     1    POSRES_FC_SC    POSRES_FC_SC    POSRES_FC_SC   
   21     1    POSRES_FC_SC    POSRES_FC_SC    POSRES_FC_SC   
   22     1    POSRES_FC_SC    POSRES_FC_SC    POSRES_FC_SC   
   23     1    POSRES_FC_SC    POSRES_FC_SC    POSRES_FC_SC   
   24     1    POSRES_FC_SC    POSRES_FC_SC    POSRES_FC_SC   
   26     1    POSRES_FC_SC    POSRES_FC_SC    POSRES_FC_SC   
   28     1    POSRES_FC_SC    POSRES_FC_SC    POSRES_FC_SC   
   30     1    POSRES_FC_BB    POSRES_FC_BB    POSRES_FC_BB   
   32     1    POSRES_FC_BB    POSRES_FC_BB    POSRES_FC_BB   
   33     1    POSRES_FC_BB    POSRES_FC_BB    POSRES_FC_BB   
   34     1    POSRES_FC_BB    POSRES_FC_BB    POSRES_FC_BB   
   35     1    POSRES_FC_BB    POSRES_FC_BB    POSRES_FC_BB   
   36     1    POSRES_FC_BB    POSRES_FC_BB    POSRES_FC_BB   
   37     1    POSRES_FC_BB    POSRES_FC_BB    POSRES_FC_BB   
   40     1    POSRES_FC_BB    POSRES_FC_BB    POSRES_FC_BB   
   42     1    POSRES_FC_SC    POSRES_FC_SC    POSRES_FC_SC   
   43     1    POSRES_FC_SC    POSRES_FC_SC    POSRES_FC_SC   
   45     1    POSRES_FC_SC    POSRES_FC_SC    POSRES_FC_SC   
   46     1    POSRES_FC_SC    POSRES_FC_SC    POSRES_FC_SC   
   48     1    POSRES_FC_SC    POSRES_FC_SC    POSRES_FC_SC   
   50     1    POSRES_FC_SC    POSRES_FC_SC    POSRES_FC_SC   
   51     1    POSRES_FC_SC    POSRES_FC_SC    POSRES_FC_SC   
   52     1    POSRES_FC_SC    POSRES_FC_SC    POSRES_FC_SC   
   53     1    POSRES_FC_SC    POSRES_FC_SC    POSRES_FC_SC   
   54     1    POSRES_FC_SC    POSRES_FC_SC    POSRES_FC_SC   
   57     1    POSRES_FC_SC    POSRES_FC_SC    POSRES_FC_SC   
   59     1    POSRES_FC_SC    POSRES_FC_SC    POSRES_FC_SC   
   61     1    POSRES_FC_BB    POSRES_FC_BB    POSRES_FC_BB   
   63     1    POSRES_FC_BB    POSRES_FC_BB    POSRES_FC_BB   
   64     1    POSRES_FC_BB    POSRES_FC_BB    POSRES_FC_BB   
   65     1    POSRES_FC_BB    POSRES_FC_BB    POSRES_FC_BB   
   66     1    POSRES_FC_BB    POSRES_FC_BB    POSRES_FC_BB   
   67     1    POSRES_FC_BB    POSRES_FC_BB    POSRES_FC_BB   
   68     1    POSRES_FC_BB    POSRES_FC_BB    POSRES_FC_BB   
   71     1    POSRES_FC_BB    POSRES_FC_BB    POSRES_FC_BB   
   73     1    POSRES_FC_SC    POSRES_FC_SC    POSRES_FC_SC   
   74     1    POSRES_FC_SC    POSRES_FC_SC    POSRES_FC_SC   
   76     1    POSRES_FC_SC    POSRES_FC_SC    POSRES_FC_SC   
   77     1    POSRES_FC_SC    POSRES_FC_SC    POSRES_FC_SC   
   78     1    POSRES_FC_SC    POSRES_FC_SC    POSRES_FC_SC   
   81     1    POSRES_FC_SC    POSRES_FC_SC    POSRES_FC_SC   
   82     1    POSRES_FC_SC    POSRES_FC_SC    POSRES_FC_SC   
   83     1    POSRES_FC_SC    POSRES_FC_SC    POSRES_FC_SC   
   85     1    POSRES_FC_SC    POSRES_FC_SC    POSRES_FC_SC   
   86     1    POSRES_FC_SC    POSRES_FC_SC    POSRES_FC_SC   
   87     1    POSRES_FC_SC    POSRES_FC_SC    POSRES_FC_SC   
   88     1    POSRES_FC_SC    POSRES_FC_SC    POSRES_FC_SC   
   89     1    POSRES_FC_SC    POSRES_FC_SC    POSRES_FC_SC   
   91     1    POSRES_FC_SC    POSRES_FC_SC    POSRES_FC_SC   
   93     1    POSRES_FC_SC    POSRES_FC_SC    POSRES_FC_SC   
   95     1    POSRES_FC_BB    POSRES_FC_BB    POSRES_FC_BB   
   97     1    POSRES_FC_BB    POSRES_FC_BB    POSRES_FC_BB   
   98     1    POSRES_FC_BB    POSRES_FC_BB    POSRES_FC_BB   
   99     1    POSRES_FC_BB    POSRES_FC_BB    POSRES_FC_BB   
  100     1    POSRES_FC_BB    POSRES_FC_BB    POSRES_FC_BB   
  101     1    POSRES_FC_BB    POSRES_FC_BB    POSRES_FC_BB   
  102     1    POSRES_FC_BB    POSRES_FC_BB    POSRES_FC_BB   
  105     1    POSRES_FC_BB    POSRES_FC_BB    POSRES_FC_BB   
  107     1    POSRES_FC_SC    POSRES_FC_SC    POSRES_FC_SC   
  108     1    POSRES_FC_SC    POSRES_FC_SC    POSRES_FC_SC   
  110     1    POSRES_FC_SC    POSRES_FC_SC    POSRES_FC_SC   
  111     1    POSRES_FC_SC    POSRES_FC_SC    POSRES_FC_SC   
  112     1    POSRES_FC_SC    POSRES_FC_SC    POSRES_FC_SC   
  113     1    POSRES_FC_SC    POSRES_FC_SC    POSRES_FC_SC   
  115     1    POSRES_FC_SC    POSRES_FC_SC    POSRES_FC_SC   
  116     1    POSRES_FC_SC    POSRES_FC_SC    POSRES_FC_SC   
  118     1    POSRES_FC_SC    POSRES_FC_SC    POSRES_FC_SC   
  119     1    POSRES_FC_SC    POSRES_FC_SC    POSRES_FC_SC   
  120     1    POSRES_FC_SC    POSRES_FC_SC    POSRES_FC_SC   
  121     1    POSRES_FC_SC    POSRES_FC_SC    POSRES_FC_SC   
  124     1    POSRES_FC_SC    POSRES_FC_SC    POSRES_FC_SC   
  126     1    POSRES_FC_SC    POSRES_FC_SC    POSRES_FC_SC   
  128     1    POSRES_FC_BB    POSRES_FC_BB    POSRES_FC_BB   
  130     1    POSRES_FC_BB    POSRES_FC_BB    POSRES_FC_BB   
  131     1    POSRES_FC_BB    POSRES_FC_BB    POSRES_FC_BB   
  132     1    POSRES_FC_BB    POSRES_FC_BB    POSRES_FC_BB   
  133     1    POSRES_FC_BB    POSRES_FC_BB    POSRES_FC_BB   
  134     1    POSRES_FC_BB    POSRES_FC_BB    POSRES_FC_BB   
  135     1    POSRES_FC_BB    POSRES_FC_BB    POSRES_FC_BB   
  138     1    POSRES_FC_BB    POSRES_FC_BB    POSRES_FC_BB   
  140     1    POSRES_FC_SC    POSRES_FC_SC    POSRES_FC_SC   
  141     1    POSRES_FC_SC    POSRES_FC_SC    POSRES_FC_SC   
  143     1    POSRES_FC_SC    POSRES_FC_SC    POSRES_FC_SC   
  144     1    POSRES_FC_SC    POSRES_FC_SC    POSRES_FC_SC   
  146     1    POSRES_FC_SC    POSRES_FC_SC    POSRES_FC_SC   
  148     1    POSRES_FC_SC    POSRES_FC_SC    POSRES_FC_SC   
  149     1    POSRES_FC_SC    POSRES_FC_SC    POSRES_FC_SC   
  150     1    POSRES_FC_SC    POSRES_FC_SC    POSRES_FC_SC   
  151     1    POSRES_FC_SC    POSRES_FC_SC    POSRES_FC_SC   
  152     1    POSRES_FC_SC    POSRES_FC_SC    POSRES_FC_SC   
  155     1    POSRES_FC_SC    POSRES_FC_SC    POSRES_FC_SC   
  157     1    POSRES_FC_SC    POSRES_FC_SC    POSRES_FC_SC   
  159     1    POSRES_FC_BB    POSRES_FC_BB    POSRES_FC_BB   
  161     1    POSRES_FC_BB    POSRES_FC_BB    POSRES_FC_BB   
  162     1    POSRES_FC_BB    POSRES_FC_BB    POSRES_FC_BB   
  163     1    POSRES_FC_BB    POSRES_FC_BB    POSRES_FC_BB   
  164     1    POSRES_FC_BB    POSRES_FC_BB    POSRES_FC_BB   
  165     1    POSRES_FC_BB    POSRES_FC_BB    POSRES_FC_BB   
  166     1    POSRES_FC_BB    POSRES_FC_BB    POSRES_FC_BB   
  169     1    POSRES_FC_BB    POSRES_FC_BB    POSRES_FC_BB   
  171     1    POSRES_FC_SC    POSRES_FC_SC    POSRES_FC_SC   
  172     1    POSRES_FC_SC    POSRES_FC_SC    POSRES_FC_SC   
  174     1    POSRES_FC_SC    POSRES_FC_SC    POSRES_FC_SC   
  175     1    POSRES_FC_SC    POSRES_FC_SC    POSRES_FC_SC   
  177     1    POSRES_FC_SC    POSRES_FC_SC    POSRES_FC_SC   
  178     1    POSRES_FC_SC    POSRES_FC_SC    POSRES_FC_SC   
  179     1    POSRES_FC_SC    POSRES_FC_SC    POSRES_FC_SC   
  181     1    POSRES_FC_SC    POSRES_FC_SC    POSRES_FC_SC   
  182     1    POSRES_FC_SC    POSRES_FC_SC    POSRES_FC_SC   
  183     1    POSRES_FC_SC    POSRES_FC_SC    POSRES_FC_SC   
  185     1    POSRES_FC_SC    POSRES_FC_SC    POSRES_FC_SC   
  187     1    POSRES_FC_SC    POSRES_FC_SC    POSRES_FC_SC   
  189     1    POSRES_FC_BB    POSRES_FC_BB    POSRES_FC_BB   
  191     1    POSRES_FC_BB    POSRES_FC_BB    POSRES_FC_BB   
  192     1    POSRES_FC_BB    POSRES_FC_BB    POSRES_FC_BB   
  193     1    POSRES_FC_BB    POSRES_FC_BB    POSRES_FC_BB   
  194     1    POSRES_FC_BB    POSRES_FC_BB    POSRES_FC_BB   
  195     1    POSRES_FC_BB    POSRES_FC_BB    POSRES_FC_BB   
  196     1    POSRES_FC_BB    POSRES_FC_BB    POSRES_FC_BB   
  199     1    POSRES_FC_BB    POSRES_FC_BB    POSRES_FC_BB   
  201     1    POSRES_FC_SC    POSRES_FC_SC    POSRES_FC_SC   
  202     1    POSRES_FC_SC    POSRES_FC_SC    POSRES_FC_SC   
  204     1    POSRES_FC_SC    POSRES_FC_SC    POSRES_FC_SC   
  205     1    POSRES_FC_SC    POSRES_FC_SC    POSRES_FC_SC   
  207     1    POSRES_FC_SC    POSRES_FC_SC    POSRES_FC_SC   
  209     1    POSRES_FC_SC    POSRES_FC_SC    POSRES_FC_SC   
  210     1    POSRES_FC_SC    POSRES_FC_SC    POSRES_FC_SC   
  211     1    POSRES_FC_SC    POSRES_FC_SC    POSRES_FC_SC   
  212     1    POSRES_FC_SC    POSRES_FC_SC    POSRES_FC_SC   
  213     1    POSRES_FC_SC    POSRES_FC_SC    POSRES_FC_SC   
  216     1    POSRES_FC_SC    POSRES_FC_SC    POSRES_FC_SC   
  218     1    POSRES_FC_SC    POSRES_FC_SC    POSRES_FC_SC   
  220     1    POSRES_FC_BB    POSRES_FC_BB    POSRES_FC_BB   
  222     1    POSRES_FC_BB    POSRES_FC_BB    POSRES_FC_BB   
  223     1    POSRES_FC_BB    POSRES_FC_BB    POSRES_FC_BB   
  224     1    POSRES_FC_BB    POSRES_FC_BB    POSRES_FC_BB   
  225     1    POSRES_FC_BB    POSRES_FC_BB    POSRES_FC_BB   
  226     1    POSRES_FC_BB    POSRES_FC_BB    POSRES_FC_BB   
  227     1    POSRES_FC_BB    POSRES_FC_BB    POSRES_FC_BB   
  230     1    POSRES_FC_BB    POSRES_FC_BB    POSRES_FC_BB   
  232     1    POSRES_FC_SC    POSRES_FC_SC    POSRES_FC_SC   
  233     1    POSRES_FC_SC    POSRES_FC_SC    POSRES_FC_SC   
  235     1    POSRES_FC_SC    POSRES_FC_SC    POSRES_FC_SC   
  236     1    POSRES_FC_SC    POSRES_FC_SC    POSRES_FC_SC   
  237     1    POSRES_FC_SC    POSRES_FC_SC    POSRES_FC_SC   
  240     1    POSRES_FC_SC    POSRES_FC_SC    POSRES_FC_SC   
  241     1    POSRES_FC_SC    POSRES_FC_SC    POSRES_FC_SC   
  242     1    POSRES_FC_SC    POSRES_FC_SC    POSRES_FC_SC   
  244     1    POSRES_FC_SC    POSRES_FC_SC    POSRES_FC_SC   
  245     1    POSRES_FC_SC    POSRES_FC_SC    POSRES_FC_SC   
  246     1    POSRES_FC_SC    POSRES_FC_SC    POSRES_FC_SC   
  247     1    POSRES_FC_SC    POSRES_FC_SC    POSRES_FC_SC   
  248     1    POSRES_FC_SC    POSRES_FC_SC    POSRES_FC_SC   
  250     1    POSRES_FC_SC    POSRES_FC_SC    POSRES_FC_SC   
  252     1    POSRES_FC_SC    POSRES_FC_SC    POSRES_FC_SC   
  254     1    POSRES_FC_BB    POSRES_FC_BB    POSRES_FC_BB   
  256     1    POSRES_FC_BB    POSRES_FC_BB    POSRES_FC_BB   
  257     1    POSRES_FC_BB    POSRES_FC_BB    POSRES_FC_BB   
  258     1    POSRES_FC_BB    POSRES_FC_BB    POSRES_FC_BB   
  259     1    POSRES_FC_BB    POSRES_FC_BB    POSRES_FC_BB   
  260     1    POSRES_FC_BB    POSRES_FC_BB    POSRES_FC_BB   
  261     1    POSRES_FC_BB    POSRES_FC_BB    POSRES_FC_BB   
  264     1    POSRES_FC_BB    POSRES_FC_BB    POSRES_FC_BB   
  266     1    POSRES_FC_SC    POSRES_FC_SC    POSRES_FC_SC   
  267     1    POSRES_FC_SC    POSRES_FC_SC    POSRES_FC_SC   
  269     1    POSRES_FC_SC    POSRES_FC_SC    POSRES_FC_SC   
  270     1    POSRES_FC_SC    POSRES_FC_SC    POSRES_FC_SC   
  271     1    POSRES_FC_SC    POSRES_FC_SC    POSRES_FC_SC   
  274     1    POSRES_FC_SC    POSRES_FC_SC    POSRES_FC_SC   
  275     1    POSRES_FC_SC    POSRES_FC_SC    POSRES_FC_SC   
  276     1    POSRES_FC_SC    POSRES_FC_SC    POSRES_FC_SC   
  278     1    POSRES_FC_SC    POSRES_FC_SC    POSRES_FC_SC   
  279     1    POSRES_FC_SC    POSRES_FC_SC    POSRES_FC_SC   
  280     1    POSRES_FC_SC    POSRES_FC_SC    POSRES_FC_SC   
  281     1    POSRES_FC_SC    POSRES_FC_SC    POSRES_FC_SC   
  282     1    POSRES_FC_SC    POSRES_FC_SC    POSRES_FC_SC   
  284     1    POSRES_FC_SC    POSRES_FC_SC    POSRES_FC_SC   
  286     1    POSRES_FC_SC    POSRES_FC_SC    POSRES_FC_SC   
  288     1    POSRES_FC_BB    POSRES_FC_BB    POSRES_FC_BB   
  290     1    POSRES_FC_BB    POSRES_FC_BB    POSRES_FC_BB   
  291     1    POSRES_FC_BB    POSRES_FC_BB    POSRES_FC_BB   
  292     1    POSRES_FC_BB    POSRES_FC_BB    POSRES_FC_BB   
  293     1    POSRES_FC_BB    POSRES_FC_BB    POSRES_FC_BB   
  294     1    POSRES_FC_BB    POSRES_FC_BB    POSRES_FC_BB   
  295     1    POSRES_FC_BB    POSRES_FC_BB    POSRES_FC_BB   
  298     1    POSRES_FC_BB    POSRES_FC_BB    POSRES_FC_BB   
  300     1    POSRES_FC_SC    POSRES_FC_SC    POSRES_FC_SC   
  301     1    POSRES_FC_SC    POSRES_FC_SC    POSRES_FC_SC   
  303     1    POSRES_FC_SC    POSRES_FC_SC    POSRES_FC_SC   
  304     1    POSRES_FC_SC    POSRES_FC_SC    POSRES_FC_SC   
  305     1    POSRES_FC_SC    POSRES_FC_SC    POSRES_FC_SC   
  308     1    POSRES_FC_SC    POSRES_FC_SC    POSRES_FC_SC   
  309     1    POSRES_FC_SC    POSRES_FC_SC    POSRES_FC_SC   
  310     1    POSRES_FC_SC    POSRES_FC_SC    POSRES_FC_SC   
  312     1    POSRES_FC_SC    POSRES_FC_SC    POSRES_FC_SC   
  313     1    POSRES_FC_SC    POSRES_FC_SC    POSRES_FC_SC   
  314     1    POSRES_FC_SC    POSRES_FC_SC    POSRES_FC_SC   
  315     1    POSRES_FC_SC    POSRES_FC_SC    POSRES_FC_SC   
  316     1    POSRES_FC_SC    POSRES_FC_SC    POSRES_FC_SC   
  318     1    POSRES_FC_SC    POSRES_FC_SC    POSRES_FC_SC   
  320     1    POSRES_FC_SC    POSRES_FC_SC    POSRES_FC_SC   
  322     1    POSRES_FC_BB    POSRES_FC_BB    POSRES_FC_BB   
  324     1    POSRES_FC_BB    POSRES_FC_BB    POSRES_FC_BB   
  325     1    POSRES_FC_BB    POSRES_FC_BB    POSRES_FC_BB   
  326     1    POSRES_FC_BB    POSRES_FC_BB    POSRES_FC_BB   
  327     1    POSRES_FC_BB    POSRES_FC_BB    POSRES_FC_BB   
  328     1    POSRES_FC_BB    POSRES_FC_BB    POSRES_FC_BB   
  329     1    POSRES_FC_BB    POSRES_FC_BB    POSRES_FC_BB   
  332     1    POSRES_FC_BB    POSRES_FC_BB    POSRES_FC_BB   
  334     1    POSRES_FC_SC    POSRES_FC_SC    POSRES_FC_SC   
  335     1    POSRES_FC_SC    POSRES_FC_SC    POSRES_FC_SC   
  337     1    POSRES_FC_SC    POSRES_FC_SC    POSRES_FC_SC   
  338     1    POSRES_FC_SC    POSRES_FC_SC    POSRES_FC_SC   
  339     1    POSRES_FC_SC    POSRES_FC_SC    POSRES_FC_SC   
  342     1    POSRES_FC_SC    POSRES_FC_SC    POSRES_FC_SC   
  343     1    POSRES_FC_SC    POSRES_FC_SC    POSRES_FC_SC   
  344     1    POSRES_FC_SC    POSRES_FC_SC    POSRES_FC_SC   
  346     1    POSRES_FC_SC    POSRES_FC_SC    POSRES_FC_SC   
  347     1    POSRES_FC_SC    POSRES_FC_SC    POSRES_FC_SC   
  348     1    POSRES_FC_SC    POSRES_FC_SC    POSRES_FC_SC   
  349     1    POSRES_FC_SC    POSRES_FC_SC    POSRES_FC_SC   
  350     1    POSRES_FC_SC    POSRES_FC_SC    POSRES_FC_SC   
  352     1    POSRES_FC_SC    POSRES_FC_SC    POSRES_FC_SC   
  354     1    POSRES_FC_SC    POSRES_FC_SC    POSRES_FC_SC   
  356     1    POSRES_FC_BB    POSRES_FC_BB    POSRES_FC_BB   
  358     1    POSRES_FC_BB    POSRES_FC_BB    POSRES_FC_BB   
  359     1    POSRES_FC_BB    POSRES_FC_BB    POSRES_FC_BB   
  360     1    POSRES_FC_BB    POSRES_FC_BB    POSRES_FC_BB   
  361     1    POSRES_FC_BB    POSRES_FC_BB    POSRES_FC_BB   
  362     1    POSRES_FC_BB    POSRES_FC_BB    POSRES_FC_BB   
  363     1    POSRES_FC_BB    POSRES_FC_BB    POSRES_FC_BB   
  366     1    POSRES_FC_BB    POSRES_FC_BB    POSRES_FC_BB   
  368     1    POSRES_FC_SC    POSRES_FC_SC    POSRES_FC_SC   
  369     1    POSRES_FC_SC    POSRES_FC_SC    POSRES_FC_SC   
  371     1    POSRES_FC_SC    POSRES_FC_SC    POSRES_FC_SC   
  372     1    POSRES_FC_SC    POSRES_FC_SC    POSRES_FC_SC   
  374     1    POSRES_FC_SC    POSRES_FC_SC    POSRES_FC_SC   
  375     1    POSRES_FC_SC    POSRES_FC_SC    POSRES_FC_SC   
  376     1    POSRES_FC_SC    POSRES_FC_SC    POSRES_FC_SC   
  378     1    POSRES_FC_SC    POSRES_FC_SC    POSRES_FC_SC   
  379     1    POSRES_FC_SC    POSRES_FC_SC    POSRES_FC_SC   
  380     1    POSRES_FC_SC    POSRES_FC_SC    POSRES_FC_SC   
  382     1    POSRES_FC_SC    POSRES_FC_SC    POSRES_FC_SC   
  384     1    POSRES_FC_SC    POSRES_FC_SC    POSRES_FC_SC   
  386     1    POSRES_FC_BB    POSRES_FC_BB    POSRES_FC_BB   
  388     1    POSRES_FC_BB    POSRES_FC_BB    POSRES_FC_BB   
  389     1    POSRES_FC_BB    POSRES_FC_BB    POSRES_FC_BB   
  390     1    POSRES_FC_BB    POSRES_FC_BB    POSRES_FC_BB   
  391     1    POSRES_FC_BB    POSRES_FC_BB    POSRES_FC_BB   
  392     1    POSRES_FC_BB    POSRES_FC_BB    POSRES_FC_BB   
  393     1    POSRES_FC_BB    POSRES_FC_BB    POSRES_FC_BB   
  396     1    POSRES_FC_BB    POSRES_FC_BB    POSRES_FC_BB   
  398     1    POSRES_FC_SC    POSRES_FC_SC    POSRES_FC_SC   
  399     1    POSRES_FC_SC    POSRES_FC_SC    POSRES_FC_SC   
  401     1    POSRES_FC_SC    POSRES_FC_SC    POSRES_FC_SC   
  402     1    POSRES_FC_SC    POSRES_FC_SC    POSRES_FC_SC   
  403     1    POSRES_FC_SC    POSRES_FC_SC    POSRES_FC_SC   
  406     1    POSRES_FC_SC    POSRES_FC_SC    POSRES_FC_SC   
  407     1    POSRES_FC_SC    POSRES_FC_SC    POSRES_FC_SC   
  408     1    POSRES_FC_SC    POSRES_FC_SC    POSRES_FC_SC   
  410     1    POSRES_FC_SC    POSRES_FC_SC    POSRES_FC_SC   
  411     1    POSRES_FC_SC    POSRES_FC_SC    POSRES_FC_SC   
  412     1    POSRES_FC_SC    POSRES_FC_SC    POSRES_FC_SC   
  413     1    POSRES_FC_SC    POSRES_FC_SC    POSRES_FC_SC   
  414     1    POSRES_FC_SC    POSRES_FC_SC    POSRES_FC_SC   
  416     1    POSRES_FC_SC    POSRES_FC_SC    POSRES_FC_SC   
  418     1    POSRES_FC_SC    POSRES_FC_SC    POSRES_FC_SC   
  420     1    POSRES_FC_BB    POSRES_FC_BB    POSRES_FC_BB   
  422     1    POSRES_FC_BB    POSRES_FC_BB    POSRES_FC_BB   
  423     1    POSRES_FC_BB    POSRES_FC_BB    POSRES_FC_BB   
  424     1    POSRES_FC_BB    POSRES_FC_BB    POSRES_FC_BB   
  425     1    POSRES_FC_BB    POSRES_FC_BB    POSRES_FC_BB   
  426     1    POSRES_FC_BB    POSRES_FC_BB    POSRES_FC_BB   
  427     1    POSRES_FC_BB    POSRES_FC_BB    POSRES_FC_BB   
  430     1    POSRES_FC_BB    POSRES_FC_BB    POSRES_FC_BB   
  432     1    POSRES_FC_SC    POSRES_FC_SC    POSRES_FC_SC   
  433     1    POSRES_FC_SC    POSRES_FC_SC    POSRES_FC_SC   
  435     1    POSRES_FC_SC    POSRES_FC_SC    POSRES_FC_SC   
  436     1    POSRES_FC_SC    POSRES_FC_SC    POSRES_FC_SC   
  438     1    POSRES_FC_SC    POSRES_FC_SC    POSRES_FC_SC   
  440     1    POSRES_FC_SC    POSRES_FC_SC    POSRES_FC_SC   
  441     1    POSRES_FC_SC    POSRES_FC_SC    POSRES_FC_SC   
  442     1    POSRES_FC_SC    POSRES_FC_SC    POSRES_FC_SC   
  443     1    POSRES_FC_SC    POSRES_FC_SC    POSRES_FC_SC   
  444     1    POSRES_FC_SC    POSRES_FC_SC    POSRES_FC_SC   
  447     1    POSRES_FC_SC    POSRES_FC_SC    POSRES_FC_SC   
  449     1    POSRES_FC_SC    POSRES_FC_SC    POSRES_FC_SC   
  451     1    POSRES_FC_BB    POSRES_FC_BB    POSRES_FC_BB   
  453     1    POSRES_FC_BB    POSRES_FC_BB    POSRES_FC_BB   
  454     1    POSRES_FC_BB    POSRES_FC_BB    POSRES_FC_BB   
  455     1    POSRES_FC_BB    POSRES_FC_BB    POSRES_FC_BB   
  456     1    POSRES_FC_BB    POSRES_FC_BB    POSRES_FC_BB   
  457     1    POSRES_FC_BB    POSRES_FC_BB    POSRES_FC_BB   
  458     1    POSRES_FC_BB    POSRES_FC_BB    POSRES_FC_BB   
  461     1    POSRES_FC_BB    POSRES_FC_BB    POSRES_FC_BB   
  463     1    POSRES_FC_SC    POSRES_FC_SC    POSRES_FC_SC   
  464     1    POSRES_FC_SC    POSRES_FC_SC    POSRES_FC_SC   
  466     1    POSRES_FC_SC    POSRES_FC_SC    POSRES_FC_SC   
  467     1    POSRES_FC_SC    POSRES_FC_SC    POSRES_FC_SC   
  469     1    POSRES_FC_SC    POSRES_FC_SC    POSRES_FC_SC   
  471     1    POSRES_FC_SC    POSRES_FC_SC    POSRES_FC_SC   
  472     1    POSRES_FC_SC    POSRES_FC_SC    POSRES_FC_SC   
  473     1    POSRES_FC_SC    POSRES_FC_SC    POSRES_FC_SC   
  474     1    POSRES_FC_SC    POSRES_FC_SC    POSRES_FC_SC   
  475     1    POSRES_FC_SC    POSRES_FC_SC    POSRES_FC_SC   
  478     1    POSRES_FC_SC    POSRES_FC_SC    POSRES_FC_SC   
  480     1    POSRES_FC_SC    POSRES_FC_SC    POSRES_FC_SC   
  482     1    POSRES_FC_BB    POSRES_FC_BB    POSRES_FC_BB   
  484     1    POSRES_FC_BB    POSRES_FC_BB    POSRES_FC_BB   
  485     1    POSRES_FC_BB    POSRES_FC_BB    POSRES_FC_BB   
  486     1    POSRES_FC_BB    POSRES_FC_BB    POSRES_FC_BB   
  487     1    POSRES_FC_BB    POSRES_FC_BB    POSRES_FC_BB   
  488     1    POSRES_FC_BB    POSRES_FC_BB    POSRES_FC_BB   
  489     1    POSRES_FC_BB    POSRES_FC_BB    POSRES_FC_BB   
  492     1    POSRES_FC_BB    POSRES_FC_BB    POSRES_FC_BB   
  494     1    POSRES_FC_SC    POSRES_FC_SC    POSRES_FC_SC   
  495     1    POSRES_FC_SC    POSRES_FC_SC    POSRES_FC_SC   
  497     1    POSRES_FC_SC    POSRES_FC_SC    POSRES_FC_SC   
  498     1    POSRES_FC_SC    POSRES_FC_SC    POSRES_FC_SC   
  500     1    POSRES_FC_SC    POSRES_FC_SC    POSRES_FC_SC   
  502     1    POSRES_FC_SC    POSRES_FC_SC    POSRES_FC_SC   
  503     1    POSRES_FC_SC    POSRES_FC_SC    POSRES_FC_SC   
  504     1    POSRES_FC_SC    POSRES_FC_SC    POSRES_FC_SC   
  505     1    POSRES_FC_SC    POSRES_FC_SC    POSRES_FC_SC   
  506     1    POSRES_FC_SC    POSRES_FC_SC    POSRES_FC_SC   
  509     1    POSRES_FC_SC    POSRES_FC_SC    POSRES_FC_SC   
  511     1    POSRES_FC_SC    POSRES_FC_SC    POSRES_FC_SC   
  513     1    POSRES_FC_BB    POSRES_FC_BB    POSRES_FC_BB   
  515     1    POSRES_FC_BB    POSRES_FC_BB    POSRES_FC_BB   
  516     1    POSRES_FC_BB    POSRES_FC_BB    POSRES_FC_BB   
  517     1    POSRES_FC_BB    POSRES_FC_BB    POSRES_FC_BB   
  518     1    POSRES_FC_BB    POSRES_FC_BB    POSRES_FC_BB   
  519     1    POSRES_FC_BB    POSRES_FC_BB    POSRES_FC_BB   
  520     1    POSRES_FC_BB    POSRES_FC_BB    POSRES_FC_BB   
  523     1    POSRES_FC_BB    POSRES_FC_BB    POSRES_FC_BB   
  525     1    POSRES_FC_SC    POSRES_FC_SC    POSRES_FC_SC   
  526     1    POSRES_FC_SC    POSRES_FC_SC    POSRES_FC_SC   
  528     1    POSRES_FC_SC    POSRES_FC_SC    POSRES_FC_SC   
  529     1    POSRES_FC_SC    POSRES_FC_SC    POSRES_FC_SC   
  531     1    POSRES_FC_SC    POSRES_FC_SC    POSRES_FC_SC   
  532     1    POSRES_FC_SC    POSRES_FC_SC    POSRES_FC_SC   
  533     1    POSRES_FC_SC    POSRES_FC_SC    POSRES_FC_SC   
  535     1    POSRES_FC_SC    POSRES_FC_SC    POSRES_FC_SC   
  536     1    POSRES_FC_SC    POSRES_FC_SC    POSRES_FC_SC   
  537     1    POSRES_FC_SC    POSRES_FC_SC    POSRES_FC_SC   
  539     1    POSRES_FC_SC    POSRES_FC_SC    POSRES_FC_SC   
  541     1    POSRES_FC_SC    POSRES_FC_SC    POSRES_FC_SC   
  543     1    POSRES_FC_BB    POSRES_FC_BB    POSRES_FC_BB   
  545     1    POSRES_FC_BB    POSRES_FC_BB    POSRES_FC_BB   
  546     1    POSRES_FC_BB    POSRES_FC_BB    POSRES_FC_BB   
  547     1    POSRES_FC_BB    POSRES_FC_BB    POSRES_FC_BB   
  548     1    POSRES_FC_BB    POSRES_FC_BB    POSRES_FC_BB   
  549     1    POSRES_FC_BB    POSRES_FC_BB    POSRES_FC_BB   
  550     1    POSRES_FC_BB    POSRES_FC_BB    POSRES_FC_BB   
  553     1    POSRES_FC_BB    POSRES_FC_BB    POSRES_FC_BB   
  555     1    POSRES_FC_SC    POSRES_FC_SC    POSRES_FC_SC   
  556     1    POSRES_FC_SC    POSRES_FC_SC    POSRES_FC_SC   
  558     1    POSRES_FC_SC    POSRES_FC_SC    POSRES_FC_SC   
  559     1    POSRES_FC_SC    POSRES_FC_SC    POSRES_FC_SC   
  561     1    POSRES_FC_SC    POSRES_FC_SC    POSRES_FC_SC   
  563     1    POSRES_FC_SC    POSRES_FC_SC    POSRES_FC_SC   
  564     1    POSRES_FC_SC    POSRES_FC_SC    POSRES_FC_SC   
  565     1    POSRES_FC_SC    POSRES_FC_SC    POSRES_FC_SC   
  566     1    POSRES_FC_SC    POSRES_FC_SC    POSRES_FC_SC   
  567     1    POSRES_FC_SC    POSRES_FC_SC    POSRES_FC_SC   
  570     1    POSRES_FC_SC    POSRES_FC_SC    POSRES_FC_SC   
  572     1    POSRES_FC_SC    POSRES_FC_SC    POSRES_FC_SC   
  574     1    POSRES_FC_BB    POSRES_FC_BB    POSRES_FC_BB   
  576     1    POSRES_FC_BB    POSRES_FC_BB    POSRES_FC_BB   
  577     1    POSRES_FC_BB    POSRES_FC_BB    POSRES_FC_BB   
  578     1    POSRES_FC_BB    POSRES_FC_BB    POSRES_FC_BB   
  579     1    POSRES_FC_BB    POSRES_FC_BB    POSRES_FC_BB   
  580     1    POSRES_FC_BB    POSRES_FC_BB    POSRES_FC_BB   
  581     1    POSRES_FC_BB    POSRES_FC_BB    POSRES_FC_BB   
  584     1    POSRES_FC_BB    POSRES_FC_BB    POSRES_FC_BB   
  586     1    POSRES_FC_SC    POSRES_FC_SC    POSRES_FC_SC   
  587     1    POSRES_FC_SC    POSRES_FC_SC    POSRES_FC_SC   
  589     1    POSRES_FC_SC    POSRES_FC_SC    POSRES_FC_SC   
  590     1    POSRES_FC_SC    POSRES_FC_SC    POSRES_FC_SC   
  592     1    POSRES_FC_SC    POSRES_FC_SC    POSRES_FC_SC   
  594     1    POSRES_FC_SC    POSRES_FC_SC    POSRES_FC_SC   
  595     1    POSRES_FC_SC    POSRES_FC_SC    POSRES_FC_SC   
  596     1    POSRES_FC_SC    POSRES_FC_SC    POSRES_FC_SC   
  597     1    POSRES_FC_SC    POSRES_FC_SC    POSRES_FC_SC   
  598     1    POSRES_FC_SC    POSRES_FC_SC    POSRES_FC_SC   
  601     1    POSRES_FC_SC    POSRES_FC_SC    POSRES_FC_SC   
  603     1    POSRES_FC_SC    POSRES_FC_SC    POSRES_FC_SC   
  605     1    POSRES_FC_BB    POSRES_FC_BB    POSRES_FC_BB   
  607     1    POSRES_FC_BB    POSRES_FC_BB    POSRES_FC_BB   
  608     1    POSRES_FC_BB    POSRES_FC_BB    POSRES_FC_BB   
  609     1    POSRES_FC_BB    POSRES_FC_BB    POSRES_FC_BB   
  610     1    POSRES_FC_BB    POSRES_FC_BB    POSRES_FC_BB   
  611     1    POSRES_FC_BB    POSRES_FC_BB    POSRES_FC_BB   
  612     1    POSRES_FC_BB    POSRES_FC_BB    POSRES_FC_BB   
  615     1    POSRES_FC_BB    POSRES_FC_BB    POSRES_FC_BB   
  617     1    POSRES_FC_SC    POSRES_FC_SC    POSRES_FC_SC   
  618     1    POSRES_FC_SC    POSRES_FC_SC    POSRES_FC_SC   
  620     1    POSRES_FC_SC    POSRES_FC_SC    POSRES_FC_SC   
  621     1    POSRES_FC_SC    POSRES_FC_SC    POSRES_FC_SC   
  622     1    POSRES_FC_SC    POSRES_FC_SC    POSRES_FC_SC   
  623     1    POSRES_FC_SC    POSRES_FC_SC    POSRES_FC_SC   
  625     1    POSRES_FC_SC    POSRES_FC_SC    POSRES_FC_SC   
  626     1    POSRES_FC_SC    POSRES_FC_SC    POSRES_FC_SC   
  628     1    POSRES_FC_SC    POSRES_FC_SC    POSRES_FC_SC   
  629     1    POSRES_FC_SC    POSRES_FC_SC    POSRES_FC_SC   
  630     1    POSRES_FC_SC    POSRES_FC_SC    POSRES_FC_SC   
  631     1    POSRES_FC_SC    POSRES_FC_SC    POSRES_FC_SC   
  634     1    POSRES_FC_SC    POSRES_FC_SC    POSRES_FC_SC   
  636     1    POSRES_FC_SC    POSRES_FC_SC    POSRES_FC_SC   
  638     1    POSRES_FC_BB    POSRES_FC_BB    POSRES_FC_BB   
  640     1    POSRES_FC_BB    POSRES_FC_BB    POSRES_FC_BB   
  641     1    POSRES_FC_BB    POSRES_FC_BB    POSRES_FC_BB   
  642     1    POSRES_FC_BB    POSRES_FC_BB    POSRES_FC_BB   
  643     1    POSRES_FC_BB    POSRES_FC_BB    POSRES_FC_BB   
  644     1    POSRES_FC_BB    POSRES_FC_BB    POSRES_FC_BB   
  645     1    POSRES_FC_BB    POSRES_FC_BB    POSRES_FC_BB   
  648     1    POSRES_FC_BB    POSRES_FC_BB    POSRES_FC_BB   
  650     1    POSRES_FC_SC    POSRES_FC_SC    POSRES_FC_SC   
  651     1    POSRES_FC_SC    POSRES_FC_SC    POSRES_FC_SC   
  653     1    POSRES_FC_SC    POSRES_FC_SC    POSRES_FC_SC   
  654     1    POSRES_FC_SC    POSRES_FC_SC    POSRES_FC_SC   
  656     1    POSRES_FC_SC    POSRES_FC_SC    POSRES_FC_SC   
  657     1    POSRES_FC_SC    POSRES_FC_SC    POSRES_FC_SC   
  658     1    POSRES_FC_SC    POSRES_FC_SC    POSRES_FC_SC   
  660     1    POSRES_FC_SC    POSRES_FC_SC    POSRES_FC_SC   
  661     1    POSRES_FC_SC    POSRES_FC_SC    POSRES_FC_SC   
  662     1    POSRES_FC_SC    POSRES_FC_SC    POSRES_FC_SC   
  664     1    POSRES_FC_SC    POSRES_FC_SC    POSRES_FC_SC   
  666     1    POSRES_FC_SC    POSRES_FC_SC    POSRES_FC_SC   
  668     1    POSRES_FC_BB    POSRES_FC_BB    POSRES_FC_BB   
  670     1    POSRES_FC_BB    POSRES_FC_BB    POSRES_FC_BB   
  671     1    POSRES_FC_BB    POSRES_FC_BB    POSRES_FC_BB   
  672     1    POSRES_FC_BB    POSRES_FC_BB    POSRES_FC_BB   
  673     1    POSRES_FC_BB    POSRES_FC_BB    POSRES_FC_BB   
  674     1    POSRES_FC_BB    POSRES_FC_BB    POSRES_FC_BB   
  675     1    POSRES_FC_BB    POSRES_FC_BB    POSRES_FC_BB   
  678     1    POSRES_FC_BB    POSRES_FC_BB    POSRES_FC_BB   
  680     1    POSRES_FC_SC    POSRES_FC_SC    POSRES_FC_SC   
  681     1    POSRES_FC_SC    POSRES_FC_SC    POSRES_FC_SC   
  683     1    POSRES_FC_SC    POSRES_FC_SC    POSRES_FC_SC   
  684     1    POSRES_FC_SC    POSRES_FC_SC    POSRES_FC_SC   
  686     1    POSRES_FC_SC    POSRES_FC_SC    POSRES_FC_SC   
  687     1    POSRES_FC_SC    POSRES_FC_SC    POSRES_FC_SC   
  688     1    POSRES_FC_SC    POSRES_FC_SC    POSRES_FC_SC   
  690     1    POSRES_FC_SC    POSRES_FC_SC    POSRES_FC_SC   
  691     1    POSRES_FC_SC    POSRES_FC_SC    POSRES_FC_SC   
  692     1    POSRES_FC_SC    POSRES_FC_SC    POSRES_FC_SC   
  694     1    POSRES_FC_SC    POSRES_FC_SC    POSRES_FC_SC   
  696     1    POSRES_FC_SC    POSRES_FC_SC    POSRES_FC_SC   
  698     1    POSRES_FC_BB    POSRES_FC_BB    POSRES_FC_BB   
  700     1    POSRES_FC_BB    POSRES_FC_BB    POSRES_FC_BB   
  701     1    POSRES_FC_BB    POSRES_FC_BB    POSRES_FC_BB   
  702     1    POSRES_FC_BB    POSRES_FC_BB    POSRES_FC_BB   
  703     1    POSRES_FC_BB    POSRES_FC_BB    POSRES_FC_BB   
  704     1    POSRES_FC_BB    POSRES_FC_BB    POSRES_FC_BB   
  705     1    POSRES_FC_BB    POSRES_FC_BB    POSRES_FC_BB   
  708     1    POSRES_FC_BB    POSRES_FC_BB    POSRES_FC_BB   
  710     1    POSRES_FC_SC    POSRES_FC_SC    POSRES_FC_SC   
  711     1    POSRES_FC_SC    POSRES_FC_SC    POSRES_FC_SC   
  713     1    POSRES_FC_SC    POSRES_FC_SC    POSRES_FC_SC   
  714     1    POSRES_FC_SC    POSRES_FC_SC    POSRES_FC_SC   
  715     1    POSRES_FC_SC    POSRES_FC_SC    POSRES_FC_SC   
  718     1    POSRES_FC_SC    POSRES_FC_SC    POSRES_FC_SC   
  719     1    POSRES_FC_SC    POSRES_FC_SC    POSRES_FC_SC   
  720     1    POSRES_FC_SC    POSRES_FC_SC    POSRES_FC_SC   
  722     1    POSRES_FC_SC    POSRES_FC_SC    POSRES_FC_SC   
  723     1    POSRES_FC_SC    POSRES_FC_SC    POSRES_FC_SC   
  724     1    POSRES_FC_SC    POSRES_FC_SC    POSRES_FC_SC   
  725     1    POSRES_FC_SC    POSRES_FC_SC    POSRES_FC_SC   
  726     1    POSRES_FC_SC    POSRES_FC_SC    POSRES_FC_SC   
  728     1    POSRES_FC_SC    POSRES_FC_SC    POSRES_FC_SC   
  730     1    POSRES_FC_SC    POSRES_FC_SC    POSRES_FC_SC   
  732     1    POSRES_FC_BB    POSRES_FC_BB    POSRES_FC_BB   
  734     1    POSRES_FC_BB    POSRES_FC_BB    POSRES_FC_BB   
  735     1    POSRES_FC_BB    POSRES_FC_BB    POSRES_FC_BB   
  736     1    POSRES_FC_BB    POSRES_FC_BB    POSRES_FC_BB   
  737     1    POSRES_FC_BB    POSRES_FC_BB    POSRES_FC_BB   
  738     1    POSRES_FC_BB    POSRES_FC_BB    POSRES_FC_BB   
  739     1    POSRES_FC_BB    POSRES_FC_BB    POSRES_FC_BB   
  742     1    POSRES_FC_BB    POSRES_FC_BB    POSRES_FC_BB   
  744     1    POSRES_FC_SC    POSRES_FC_SC    POSRES_FC_SC   
  745     1    POSRES_FC_SC    POSRES_FC_SC    POSRES_FC_SC   
  747     1    POSRES_FC_SC    POSRES_FC_SC    POSRES_FC_SC   
  748     1    POSRES_FC_SC    POSRES_FC_SC    POSRES_FC_SC   
  750     1    POSRES_FC_SC    POSRES_FC_SC    POSRES_FC_SC   
  752     1    POSRES_FC_SC    POSRES_FC_SC    POSRES_FC_SC   
  753     1    POSRES_FC_SC    POSRES_FC_SC    POSRES_FC_SC   
  754     1    POSRES_FC_SC    POSRES_FC_SC    POSRES_FC_SC   
  755     1    POSRES_FC_SC    POSRES_FC_SC    POSRES_FC_SC   
  756     1    POSRES_FC_SC    POSRES_FC_SC    POSRES_FC_SC   
  759     1    POSRES_FC_SC    POSRES_FC_SC    POSRES_FC_SC   
  761     1    POSRES_FC_SC    POSRES_FC_SC    POSRES_FC_SC   
  763     1    POSRES_FC_BB    POSRES_FC_BB    POSRES_FC_BB   
  765     1    POSRES_FC_BB    POSRES_FC_BB    POSRES_FC_BB   
  766     1    POSRES_FC_BB    POSRES_FC_BB    POSRES_FC_BB   
  767     1    POSRES_FC_BB    POSRES_FC_BB    POSRES_FC_BB   
  768     1    POSRES_FC_BB    POSRES_FC_BB    POSRES_FC_BB   
  769     1    POSRES_FC_BB    POSRES_FC_BB    POSRES_FC_BB   
  770     1    POSRES_FC_BB    POSRES_FC_BB    POSRES_FC_BB   
  773     1    POSRES_FC_BB    POSRES_FC_BB    POSRES_FC_BB   
  775     1    POSRES_FC_SC    POSRES_FC_SC    POSRES_FC_SC   
  776     1    POSRES_FC_SC    POSRES_FC_SC    POSRES_FC_SC   
  778     1    POSRES_FC_SC    POSRES_FC_SC    POSRES_FC_SC   
  779     1    POSRES_FC_SC    POSRES_FC_SC    POSRES_FC_SC   
  780     1    POSRES_FC_SC    POSRES_FC_SC    POSRES_FC_SC   
  781     1    POSRES_FC_SC    POSRES_FC_SC    POSRES_FC_SC   
  783     1    POSRES_FC_SC    POSRES_FC_SC    POSRES_FC_SC   
  784     1    POSRES_FC_SC    POSRES_FC_SC    POSRES_FC_SC   
  786     1    POSRES_FC_SC    POSRES_FC_SC    POSRES_FC_SC   
  787     1    POSRES_FC_SC    POSRES_FC_SC    POSRES_FC_SC   
  788     1    POSRES_FC_SC    POSRES_FC_SC    POSRES_FC_SC   
  789     1    POSRES_FC_SC    POSRES_FC_SC    POSRES_FC_SC   
  792     1    POSRES_FC_SC    POSRES_FC_SC    POSRES_FC_SC   
  794     1    POSRES_FC_SC    POSRES_FC_SC    POSRES_FC_SC   
  796     1    POSRES_FC_BB    POSRES_FC_BB    POSRES_FC_BB   
  798     1    POSRES_FC_BB    POSRES_FC_BB    POSRES_FC_BB   
  799     1    POSRES_FC_BB    POSRES_FC_BB    POSRES_FC_BB   
  800     1    POSRES_FC_BB    POSRES_FC_BB    POSRES_FC_BB   
  801     1    POSRES_FC_BB    POSRES_FC_BB    POSRES_FC_BB   
  802     1    POSRES_FC_BB    POSRES_FC_BB    POSRES_FC_BB   
  803     1    POSRES_FC_BB    POSRES_FC_BB    POSRES_FC_BB   
  806     1    POSRES_FC_BB    POSRES_FC_BB    POSRES_FC_BB   
  808     1    POSRES_FC_SC    POSRES_FC_SC    POSRES_FC_SC   
  809     1    POSRES_FC_SC    POSRES_FC_SC    POSRES_FC_SC   
  811     1    POSRES_FC_SC    POSRES_FC_SC    POSRES_FC_SC   
  812     1    POSRES_FC_SC    POSRES_FC_SC    POSRES_FC_SC   
  814     1    POSRES_FC_SC    POSRES_FC_SC    POSRES_FC_SC   
  816     1    POSRES_FC_SC    POSRES_FC_SC    POSRES_FC_SC   
  817     1    POSRES_FC_SC    POSRES_FC_SC    POSRES_FC_SC   
  818     1    POSRES_FC_SC    POSRES_FC_SC    POSRES_FC_SC   
  819     1    POSRES_FC_SC    POSRES_FC_SC    POSRES_FC_SC   
  820     1    POSRES_FC_SC    POSRES_FC_SC    POSRES_FC_SC   
  823     1    POSRES_FC_SC    POSRES_FC_SC    POSRES_FC_SC   
  825     1    POSRES_FC_SC    POSRES_FC_SC    POSRES_FC_SC   
  827     1    POSRES_FC_BB    POSRES_FC_BB    POSRES_FC_BB   
  829     1    POSRES_FC_BB    POSRES_FC_BB    POSRES_FC_BB   
  830     1    POSRES_FC_BB    POSRES_FC_BB    POSRES_FC_BB   
  831     1    POSRES_FC_BB    POSRES_FC_BB    POSRES_FC_BB   
  832     1    POSRES_FC_BB    POSRES_FC_BB    POSRES_FC_BB   
  833     1    POSRES_FC_BB    POSRES_FC_BB    POSRES_FC_BB   
  834     1    POSRES_FC_BB    POSRES_FC_BB    POSRES_FC_BB   
  837     1    POSRES_FC_BB    POSRES_FC_BB    POSRES_FC_BB   
  839     1    POSRES_FC_SC    POSRES_FC_SC    POSRES_FC_SC   
  840     1    POSRES_FC_SC    POSRES_FC_SC    POSRES_FC_SC   
  842     1    POSRES_FC_SC    POSRES_FC_SC    POSRES_FC_SC   
  843     1    POSRES_FC_SC    POSRES_FC_SC    POSRES_FC_SC   
  845     1    POSRES_FC_SC    POSRES_FC_SC    POSRES_FC_SC   
  846     1    POSRES_FC_SC    POSRES_FC_SC    POSRES_FC_SC   
  847     1    POSRES_FC_SC    POSRES_FC_SC    POSRES_FC_SC   
  849     1    POSRES_FC_SC    POSRES_FC_SC    POSRES_FC_SC   
  850     1    POSRES_FC_SC    POSRES_FC_SC    POSRES_FC_SC   
  851     1    POSRES_FC_SC    POSRES_FC_SC    POSRES_FC_SC   
  853     1    POSRES_FC_SC    POSRES_FC_SC    POSRES_FC_SC   
  855     1    POSRES_FC_SC    POSRES_FC_SC    POSRES_FC_SC   
  857     1    POSRES_FC_BB    POSRES_FC_BB    POSRES_FC_BB   
  859     1    POSRES_FC_BB    POSRES_FC_BB    POSRES_FC_BB   
  860     1    POSRES_FC_BB    POSRES_FC_BB    POSRES_FC_BB   
  861     1    POSRES_FC_BB    POSRES_FC_BB    POSRES_FC_BB   
  862     1    POSRES_FC_BB    POSRES_FC_BB    POSRES_FC_BB   
  863     1    POSRES_FC_BB    POSRES_FC_BB    POSRES_FC_BB   
  864     1    POSRES_FC_BB    POSRES_FC_BB    POSRES_FC_BB   
  867     1    POSRES_FC_BB    POSRES_FC_BB    POSRES_FC_BB   
  869     1    POSRES_FC_SC    POSRES_FC_SC    POSRES_FC_SC   
  870     1    POSRES_FC_SC    POSRES_FC_SC    POSRES_FC_SC   
  872     1    POSRES_FC_SC    POSRES_FC_SC    POSRES_FC_SC   
  873     1    POSRES_FC_SC    POSRES_FC_SC    POSRES_FC_SC   
  875     1    POSRES_FC_SC    POSRES_FC_SC    POSRES_FC_SC   
  877     1    POSRES_FC_SC    POSRES_FC_SC    POSRES_FC_SC   
  878     1    POSRES_FC_SC    POSRES_FC_SC    POSRES_FC_SC   
  879     1    POSRES_FC_SC    POSRES_FC_SC    POSRES_FC_SC   
  880     1    POSRES_FC_SC    POSRES_FC_SC    POSRES_FC_SC   
  881     1    POSRES_FC_SC    POSRES_FC_SC    POSRES_FC_SC   
  884     1    POSRES_FC_SC    POSRES_FC_SC    POSRES_FC_SC   
  886     1    POSRES_FC_SC    POSRES_FC_SC    POSRES_FC_SC   
  888     1    POSRES_FC_BB    POSRES_FC_BB    POSRES_FC_BB   
  890     1    POSRES_FC_BB    POSRES_FC_BB    POSRES_FC_BB   
  891     1    POSRES_FC_BB    POSRES_FC_BB    POSRES_FC_BB   
  892     1    POSRES_FC_BB    POSRES_FC_BB    POSRES_FC_BB   
  893     1    POSRES_FC_BB    POSRES_FC_BB    POSRES_FC_BB   
  894     1    POSRES_FC_BB    POSRES_FC_BB    POSRES_FC_BB   
  895     1    POSRES_FC_BB    POSRES_FC_BB    POSRES_FC_BB   
  898     1    POSRES_FC_BB    POSRES_FC_BB    POSRES_FC_BB   
  900     1    POSRES_FC_SC    POSRES_FC_SC    POSRES_FC_SC   
  901     1    POSRES_FC_SC    POSRES_FC_SC    POSRES_FC_SC   
  903     1    POSRES_FC_SC    POSRES_FC_SC    POSRES_FC_SC   
  904     1    POSRES_FC_SC    POSRES_FC_SC    POSRES_FC_SC   
  906     1    POSRES_FC_SC    POSRES_FC_SC    POSRES_FC_SC   
  908     1    POSRES_FC_SC    POSRES_FC_SC    POSRES_FC_SC   
  909     1    POSRES_FC_SC    POSRES_FC_SC    POSRES_FC_SC   
  910     1    POSRES_FC_SC    POSRES_FC_SC    POSRES_FC_SC   
  911     1    POSRES_FC_SC    POSRES_FC_SC    POSRES_FC_SC   
  912     1    POSRES_FC_SC    POSRES_FC_SC    POSRES_FC_SC   
  915     1    POSRES_FC_SC    POSRES_FC_SC    POSRES_FC_SC   
  917     1    POSRES_FC_SC    POSRES_FC_SC    POSRES_FC_SC   
  919     1    POSRES_FC_BB    POSRES_FC_BB    POSRES_FC_BB   
  921     1    POSRES_FC_BB    POSRES_FC_BB    POSRES_FC_BB   
  922     1    POSRES_FC_BB    POSRES_FC_BB    POSRES_FC_BB   
  923     1    POSRES_FC_BB    POSRES_FC_BB    POSRES_FC_BB   
  924     1    POSRES_FC_BB    POSRES_FC_BB    POSRES_FC_BB   
  925     1    POSRES_FC_BB    POSRES_FC_BB    POSRES_FC_BB   
  926     1    POSRES_FC_BB    POSRES_FC_BB    POSRES_FC_BB   
  929     1    POSRES_FC_BB    POSRES_FC_BB    POSRES_FC_BB   
  931     1    POSRES_FC_SC    POSRES_FC_SC    POSRES_FC_SC   
  932     1    POSRES_FC_SC    POSRES_FC_SC    POSRES_FC_SC   
  934     1    POSRES_FC_SC    POSRES_FC_SC    POSRES_FC_SC   
  935     1    POSRES_FC_SC    POSRES_FC_SC    POSRES_FC_SC   
  936     1    POSRES_FC_SC    POSRES_FC_SC    POSRES_FC_SC   
  939     1    POSRES_FC_SC    POSRES_FC_SC    POSRES_FC_SC   
  940     1    POSRES_FC_SC    POSRES_FC_SC    POSRES_FC_SC   
  941     1    POSRES_FC_SC    POSRES_FC_SC    POSRES_FC_SC   
  943     1    POSRES_FC_SC    POSRES_FC_SC    POSRES_FC_SC   
  944     1    POSRES_FC_SC    POSRES_FC_SC    POSRES_FC_SC   
  945     1    POSRES_FC_SC    POSRES_FC_SC    POSRES_FC_SC   
  946     1    POSRES_FC_SC    POSRES_FC_SC    POSRES_FC_SC   
  947     1    POSRES_FC_SC    POSRES_FC_SC    POSRES_FC_SC   
  949     1    POSRES_FC_SC    POSRES_FC_SC    POSRES_FC_SC   
  951     1    POSRES_FC_SC    POSRES_FC_SC    POSRES_FC_SC   
  953     1    POSRES_FC_BB    POSRES_FC_BB    POSRES_FC_BB   
  955     1    POSRES_FC_BB    POSRES_FC_BB    POSRES_FC_BB   
  956     1    POSRES_FC_BB    POSRES_FC_BB    POSRES_FC_BB   
  957     1    POSRES_FC_BB    POSRES_FC_BB    POSRES_FC_BB   
  958     1    POSRES_FC_BB    POSRES_FC_BB    POSRES_FC_BB   
  959     1    POSRES_FC_BB    POSRES_FC_BB    POSRES_FC_BB   
  960     1    POSRES_FC_BB    POSRES_FC_BB    POSRES_FC_BB   
  963     1    POSRES_FC_BB    POSRES_FC_BB    POSRES_FC_BB   
  965     1    POSRES_FC_SC    POSRES_FC_SC    POSRES_FC_SC   
  966     1    POSRES_FC_SC    POSRES_FC_SC    POSRES_FC_SC   
  968     1    POSRES_FC_SC    POSRES_FC_SC    POSRES_FC_SC   
  969     1    POSRES_FC_SC    POSRES_FC_SC    POSRES_FC_SC   
  970     1    POSRES_FC_SC    POSRES_FC_SC    POSRES_FC_SC   
  973     1    POSRES_FC_SC    POSRES_FC_SC    POSRES_FC_SC   
  974     1    POSRES_FC_SC    POSRES_FC_SC    POSRES_FC_SC   
  975     1    POSRES_FC_SC    POSRES_FC_SC    POSRES_FC_SC   
  977     1    POSRES_FC_SC    POSRES_FC_SC    POSRES_FC_SC   
  978     1    POSRES_FC_SC    POSRES_FC_SC    POSRES_FC_SC   
  979     1    POSRES_FC_SC    POSRES_FC_SC    POSRES_FC_SC   
  980     1    POSRES_FC_SC    POSRES_FC_SC    POSRES_FC_SC   
  981     1    POSRES_FC_SC    POSRES_FC_SC    POSRES_FC_SC   
  983     1    POSRES_FC_SC    POSRES_FC_SC    POSRES_FC_SC   
  985     1    POSRES_FC_SC    POSRES_FC_SC    POSRES_FC_SC   
  987     1    POSRES_FC_BB    POSRES_FC_BB    POSRES_FC_BB   
  989     1    POSRES_FC_BB    POSRES_FC_BB    POSRES_FC_BB   
  990     1    POSRES_FC_BB    POSRES_FC_BB    POSRES_FC_BB   
  991     1    POSRES_FC_BB    POSRES_FC_BB    POSRES_FC_BB   
  992     1    POSRES_FC_BB    POSRES_FC_BB    POSRES_FC_BB   
  993     1    POSRES_FC_BB    POSRES_FC_BB    POSRES_FC_BB   
  994     1    POSRES_FC_BB    POSRES_FC_BB    POSRES_FC_BB   
  997     1    POSRES_FC_BB    POSRES_FC_BB    POSRES_FC_BB   
  999     1    POSRES_FC_SC    POSRES_FC_SC    POSRES_FC_SC   
 1000     1    POSRES_FC_SC    POSRES_FC_SC    POSRES_FC_SC   
 1002     1    POSRES_FC_SC    POSRES_FC_SC    POSRES_FC_SC   
 1003     1    POSRES_FC_SC    POSRES_FC_SC    POSRES_FC_SC   
 1004     1    POSRES_FC_SC    POSRES_FC_SC    POSRES_FC_SC   
 1005     1    POSRES_FC_SC    POSRES_FC_SC    POSRES_FC_SC   
 1007     1    POSRES_FC_SC    POSRES_FC_SC    POSRES_FC_SC   
 1008     1    POSRES_FC_SC    POSRES_FC_SC    POSRES_FC_SC   
 1010     1    POSRES_FC_SC    POSRES_FC_SC    POSRES_FC_SC   
 1011     1    POSRES_FC_SC    POSRES_FC_SC    POSRES_FC_SC   
 1012     1    POSRES_FC_SC    POSRES_FC_SC    POSRES_FC_SC   
 1013     1    POSRES_FC_SC    POSRES_FC_SC    POSRES_FC_SC   
 1016     1    POSRES_FC_SC    POSRES_FC_SC    POSRES_FC_SC   
 1018     1    POSRES_FC_SC    POSRES_FC_SC    POSRES_FC_SC   
 1020     1    POSRES_FC_BB    POSRES_FC_BB    POSRES_FC_BB   
 1022     1    POSRES_FC_BB    POSRES_FC_BB    POSRES_FC_BB   
 1023     1    POSRES_FC_BB    POSRES_FC_BB    POSRES_FC_BB   
 1024     1    POSRES_FC_BB    POSRES_FC_BB    POSRES_FC_BB   
 1025     1    POSRES_FC_BB    POSRES_FC_BB    POSRES_FC_BB   
 1026     1    POSRES_FC_BB    POSRES_FC_BB    POSRES_FC_BB   
 1027     1    POSRES_FC_BB    POSRES_FC_BB    POSRES_FC_BB   
 1030     1    POSRES_FC_BB    POSRES_FC_BB    POSRES_FC_BB   
 1032     1    POSRES_FC_SC    POSRES_FC_SC    POSRES_FC_SC   
 1033     1    POSRES_FC_SC    POSRES_FC_SC    POSRES_FC_SC   
 1035     1    POSRES_FC_SC    POSRES_FC_SC    POSRES_FC_SC   
 1036     1    POSRES_FC_SC    POSRES_FC_SC    POSRES_FC_SC   
 1037     1    POSRES_FC_SC    POSRES_FC_SC    POSRES_FC_SC   
 1040     1    POSRES_FC_SC    POSRES_FC_SC    POSRES_FC_SC   
 1041     1    POSRES_FC_SC    POSRES_FC_SC    POSRES_FC_SC   
 1042     1    POSRES_FC_SC    POSRES_FC_SC    POSRES_FC_SC   
 1044     1    POSRES_FC_SC    POSRES_FC_SC    POSRES_FC_SC   
 1045     1    POSRES_FC_SC    POSRES_FC_SC    POSRES_FC_SC   
 1046     1    POSRES_FC_SC    POSRES_FC_SC    POSRES_FC_SC   
 1047     1    POSRES_FC_SC    POSRES_FC_SC    POSRES_FC_SC   
 1048     1    POSRES_FC_SC    POSRES_FC_SC    POSRES_FC_SC   
 1050     1    POSRES_FC_SC    POSRES_FC_SC    POSRES_FC_SC   
 1052     1    POSRES_FC_SC    POSRES_FC_SC    POSRES_FC_SC   
 1054     1    POSRES_FC_BB    POSRES_FC_BB    POSRES_FC_BB   
 1056     1    POSRES_FC_BB    POSRES_FC_BB    POSRES_FC_BB   
 1057     1    POSRES_FC_BB    POSRES_FC_BB    POSRES_FC_BB   
 1058     1    POSRES_FC_BB    POSRES_FC_BB    POSRES_FC_BB   
 1059     1    POSRES_FC_BB    POSRES_FC_BB    POSRES_FC_BB   
 1060     1    POSRES_FC_BB    POSRES_FC_BB    POSRES_FC_BB   
 1061     1    POSRES_FC_BB    POSRES_FC_BB    POSRES_FC_BB   
 1064     1    POSRES_FC_BB    POSRES_FC_BB    POSRES_FC_BB   
 1066     1    POSRES_FC_SC    POSRES_FC_SC    POSRES_FC_SC   
 1067     1    POSRES_FC_SC    POSRES_FC_SC    POSRES_FC_SC   
 1069     1    POSRES_FC_SC    POSRES_FC_SC    POSRES_FC_SC   
 1070     1    POSRES_FC_SC    POSRES_FC_SC    POSRES_FC_SC   
 1071     1    POSRES_FC_SC    POSRES_FC_SC    POSRES_FC_SC   
 1074     1    POSRES_FC_SC    POSRES_FC_SC    POSRES_FC_SC   
 1075     1    POSRES_FC_SC    POSRES_FC_SC    POSRES_FC_SC   
 1076     1    POSRES_FC_SC    POSRES_FC_SC    POSRES_FC_SC   
 1078     1    POSRES_FC_SC    POSRES_FC_SC    POSRES_FC_SC   
 1079     1    POSRES_FC_SC    POSRES_FC_SC    POSRES_FC_SC   
 1080     1    POSRES_FC_SC    POSRES_FC_SC    POSRES_FC_SC   
 1081     1    POSRES_FC_SC    POSRES_FC_SC    POSRES_FC_SC   
 1082     1    POSRES_FC_SC    POSRES_FC_SC    POSRES_FC_SC   
 1084     1    POSRES_FC_SC    POSRES_FC_SC    POSRES_FC_SC   
 1086     1    POSRES_FC_SC    POSRES_FC_SC    POSRES_FC_SC   
 1088     1    POSRES_FC_BB    POSRES_FC_BB    POSRES_FC_BB   
 1090     1    POSRES_FC_BB    POSRES_FC_BB    POSRES_FC_BB   
 1091     1    POSRES_FC_BB    POSRES_FC_BB    POSRES_FC_BB   
 1092     1    POSRES_FC_BB    POSRES_FC_BB    POSRES_FC_BB   
 1093     1    POSRES_FC_BB    POSRES_FC_BB    POSRES_FC_BB   
 1094     1    POSRES_FC_BB    POSRES_FC_BB    POSRES_FC_BB   
 1095     1    POSRES_FC_BB    POSRES_FC_BB    POSRES_FC_BB   
 1098     1    POSRES_FC_BB    POSRES_FC_BB    POSRES_FC_BB   
 1100     1    POSRES_FC_SC    POSRES_FC_SC    POSRES_FC_SC   
 1101     1    POSRES_FC_SC    POSRES_FC_SC    POSRES_FC_SC   
 1103     1    POSRES_FC_SC    POSRES_FC_SC    POSRES_FC_SC   
 1104     1    POSRES_FC_SC    POSRES_FC_SC    POSRES_FC_SC   
 1106     1    POSRES_FC_SC    POSRES_FC_SC    POSRES_FC_SC   
 1108     1    POSRES_FC_SC    POSRES_FC_SC    POSRES_FC_SC   
 1109     1    POSRES_FC_SC    POSRES_FC_SC    POSRES_FC_SC   
 1110     1    POSRES_FC_SC    POSRES_FC_SC    POSRES_FC_SC   
 1111     1    POSRES_FC_SC    POSRES_FC_SC    POSRES_FC_SC   
 1112     1    POSRES_FC_SC    POSRES_FC_SC    POSRES_FC_SC   
 1115     1    POSRES_FC_SC    POSRES_FC_SC    POSRES_FC_SC   
 1117     1    POSRES_FC_SC    POSRES_FC_SC    POSRES_FC_SC   
 1119     1    POSRES_FC_BB    POSRES_FC_BB    POSRES_FC_BB   
 1121     1    POSRES_FC_BB    POSRES_FC_BB    POSRES_FC_BB   
 1122     1    POSRES_FC_BB    POSRES_FC_BB    POSRES_FC_BB   
 1123     1    POSRES_FC_BB    POSRES_FC_BB    POSRES_FC_BB   
 1124     1    POSRES_FC_BB    POSRES_FC_BB    POSRES_FC_BB   
 1125     1    POSRES_FC_BB    POSRES_FC_BB    POSRES_FC_BB   
 1126     1    POSRES_FC_BB    POSRES_FC_BB    POSRES_FC_BB   
 1129     1    POSRES_FC_BB    POSRES_FC_BB    POSRES_FC_BB   
 1131     1    POSRES_FC_SC    POSRES_FC_SC    POSRES_FC_SC   
 1132     1    POSRES_FC_SC    POSRES_FC_SC    POSRES_FC_SC   
 1134     1    POSRES_FC_SC    POSRES_FC_SC    POSRES_FC_SC   
 1135     1    POSRES_FC_SC    POSRES_FC_SC    POSRES_FC_SC   
 1137     1    POSRES_FC_SC    POSRES_FC_SC    POSRES_FC_SC   
 1138     1    POSRES_FC_SC    POSRES_FC_SC    POSRES_FC_SC   
 1139     1    POSRES_FC_SC    POSRES_FC_SC    POSRES_FC_SC   
 1141     1    POSRES_FC_SC    POSRES_FC_SC    POSRES_FC_SC   
 1142     1    POSRES_FC_SC    POSRES_FC_SC    POSRES_FC_SC   
 1143     1    POSRES_FC_SC    POSRES_FC_SC    POSRES_FC_SC   
 1145     1    POSRES_FC_SC    POSRES_FC_SC    POSRES_FC_SC   
 1147     1    POSRES_FC_SC    POSRES_FC_SC    POSRES_FC_SC   
 1149     1    POSRES_FC_BB    POSRES_FC_BB    POSRES_FC_BB   
 1151     1    POSRES_FC_BB    POSRES_FC_BB    POSRES_FC_BB   
 1152     1    POSRES_FC_BB    POSRES_FC_BB    POSRES_FC_BB   
 1153     1    POSRES_FC_BB    POSRES_FC_BB    POSRES_FC_BB   
 1154     1    POSRES_FC_BB    POSRES_FC_BB    POSRES_FC_BB   
 1155     1    POSRES_FC_BB    POSRES_FC_BB    POSRES_FC_BB   
 1156     1    POSRES_FC_BB    POSRES_FC_BB    POSRES_FC_BB   
 1159     1    POSRES_FC_BB    POSRES_FC_BB    POSRES_FC_BB   
 1161     1    POSRES_FC_SC    POSRES_FC_SC    POSRES_FC_SC   
 1162     1    POSRES_FC_SC    POSRES_FC_SC    POSRES_FC_SC   
 1164     1    POSRES_FC_SC    POSRES_FC_SC    POSRES_FC_SC   
 1165     1    POSRES_FC_SC    POSRES_FC_SC    POSRES_FC_SC   
 1166     1    POSRES_FC_SC    POSRES_FC_SC    POSRES_FC_SC   
 1169     1    POSRES_FC_SC    POSRES_FC_SC    POSRES_FC_SC   
 1170     1    POSRES_FC_SC    POSRES_FC_SC    POSRES_FC_SC   
 1171     1    POSRES_FC_SC    POSRES_FC_SC    POSRES_FC_SC   
 1173     1    POSRES_FC_SC    POSRES_FC_SC    POSRES_FC_SC   
 1174     1    POSRES_FC_SC    POSRES_FC_SC    POSRES_FC_SC   
 1175     1    POSRES_FC_SC    POSRES_FC_SC    POSRES_FC_SC   
 1176     1    POSRES_FC_SC    POSRES_FC_SC    POSRES_FC_SC   
 1177     1    POSRES_FC_SC    POSRES_FC_SC    POSRES_FC_SC   
 1179     1    POSRES_FC_SC    POSRES_FC_SC    POSRES_FC_SC   
 1181     1    POSRES_FC_SC    POSRES_FC_SC    POSRES_FC_SC   
 1183     1    POSRES_FC_BB    POSRES_FC_BB    POSRES_FC_BB   
 1185     1    POSRES_FC_BB    POSRES_FC_BB    POSRES_FC_BB   
 1186     1    POSRES_FC_BB    POSRES_FC_BB    POSRES_FC_BB   
 1187     1    POSRES_FC_BB    POSRES_FC_BB    POSRES_FC_BB   
 1188     1    POSRES_FC_BB    POSRES_FC_BB    POSRES_FC_BB   
 1189     1    POSRES_FC_BB    POSRES_FC_BB    POSRES_FC_BB   
 1190     1    POSRES_FC_BB    POSRES_FC_BB    POSRES_FC_BB   
 1193     1    POSRES_FC_BB    POSRES_FC_BB    POSRES_FC_BB   
 1195     1    POSRES_FC_SC    POSRES_FC_SC    POSRES_FC_SC   
 1196     1    POSRES_FC_SC    POSRES_FC_SC    POSRES_FC_SC   
 1198     1    POSRES_FC_SC    POSRES_FC_SC    POSRES_FC_SC   
 1199     1    POSRES_FC_SC    POSRES_FC_SC    POSRES_FC_SC   
 1200     1    POSRES_FC_SC    POSRES_FC_SC    POSRES_FC_SC   
 1201     1    POSRES_FC_SC    POSRES_FC_SC    POSRES_FC_SC   
 1203     1    POSRES_FC_SC    POSRES_FC_SC    POSRES_FC_SC   
 1204     1    POSRES_FC_SC    POSRES_FC_SC    POSRES_FC_SC   
 1206     1    POSRES_FC_SC    POSRES_FC_SC    POSRES_FC_SC   
 1207     1    POSRES_FC_SC    POSRES_FC_SC    POSRES_FC_SC   
 1208     1    POSRES_FC_SC    POSRES_FC_SC    POSRES_FC_SC   
 1209     1    POSRES_FC_SC    POSRES_FC_SC    POSRES_FC_SC   
 1212     1    POSRES_FC_SC    POSRES_FC_SC    POSRES_FC_SC   
 1214     1    POSRES_FC_SC    POSRES_FC_SC    POSRES_FC_SC   
 1216     1    POSRES_FC_BB    POSRES_FC_BB    POSRES_FC_BB   
 1218     1    POSRES_FC_BB    POSRES_FC_BB    POSRES_FC_BB   
 1219     1    POSRES_FC_BB    POSRES_FC_BB    POSRES_FC_BB   
 1220     1    POSRES_FC_BB    POSRES_FC_BB    POSRES_FC_BB   
 1221     1    POSRES_FC_BB    POSRES_FC_BB    POSRES_FC_BB   
 1222     1    POSRES_FC_BB    POSRES_FC_BB    POSRES_FC_BB   
 1223     1    POSRES_FC_BB    POSRES_FC_BB    POSRES_FC_BB   
 1226     1    POSRES_FC_BB    POSRES_FC_BB    POSRES_FC_BB   
 1228     1    POSRES_FC_SC    POSRES_FC_SC    POSRES_FC_SC   
 1229     1    POSRES_FC_SC    POSRES_FC_SC    POSRES_FC_SC   
 1231     1    POSRES_FC_SC    POSRES_FC_SC    POSRES_FC_SC   
 1232     1    POSRES_FC_SC    POSRES_FC_SC    POSRES_FC_SC   
 1233     1    POSRES_FC_SC    POSRES_FC_SC    POSRES_FC_SC   
 1236     1    POSRES_FC_SC    POSRES_FC_SC    POSRES_FC_SC   
 1237     1    POSRES_FC_SC    POSRES_FC_SC    POSRES_FC_SC   
 1238     1    POSRES_FC_SC    POSRES_FC_SC    POSRES_FC_SC   
 1240     1    POSRES_FC_SC    POSRES_FC_SC    POSRES_FC_SC   
 1241     1    POSRES_FC_SC    POSRES_FC_SC    POSRES_FC_SC   
 1242     1    POSRES_FC_SC    POSRES_FC_SC    POSRES_FC_SC   
 1243     1    POSRES_FC_SC    POSRES_FC_SC    POSRES_FC_SC   
 1244     1    POSRES_FC_SC    POSRES_FC_SC    POSRES_FC_SC   
 1246     1    POSRES_FC_SC    POSRES_FC_SC    POSRES_FC_SC   
 1248     1    POSRES_FC_SC    POSRES_FC_SC    POSRES_FC_SC   
 1250     1    POSRES_FC_BB    POSRES_FC_BB    POSRES_FC_BB   
 1252     1    POSRES_FC_BB    POSRES_FC_BB    POSRES_FC_BB   
 1253     1    POSRES_FC_BB    POSRES_FC_BB    POSRES_FC_BB   
 1254     1    POSRES_FC_BB    POSRES_FC_BB    POSRES_FC_BB   
 1255     1    POSRES_FC_BB    POSRES_FC_BB    POSRES_FC_BB   
 1256     1    POSRES_FC_BB    POSRES_FC_BB    POSRES_FC_BB   
 1257     1    POSRES_FC_BB    POSRES_FC_BB    POSRES_FC_BB   
 1260     1    POSRES_FC_BB    POSRES_FC_BB    POSRES_FC_BB   
 1262     1    POSRES_FC_SC    POSRES_FC_SC    POSRES_FC_SC   
 1263     1    POSRES_FC_SC    POSRES_FC_SC    POSRES_FC_SC   
 1265     1    POSRES_FC_SC    POSRES_FC_SC    POSRES_FC_SC   
 1266     1    POSRES_FC_SC    POSRES_FC_SC    POSRES_FC_SC   
 1267     1    POSRES_FC_SC    POSRES_FC_SC    POSRES_FC_SC   
 1268     1    POSRES_FC_SC    POSRES_FC_SC    POSRES_FC_SC   
 1270     1    POSRES_FC_SC    POSRES_FC_SC    POSRES_FC_SC   
 1271     1    POSRES_FC_SC    POSRES_FC_SC    POSRES_FC_SC   
 1273     1    POSRES_FC_SC    POSRES_FC_SC    POSRES_FC_SC   
 1274     1    POSRES_FC_SC    POSRES_FC_SC    POSRES_FC_SC   
 1275     1    POSRES_FC_SC    POSRES_FC_SC    POSRES_FC_SC   
 1276     1    POSRES_FC_SC    POSRES_FC_SC    POSRES_FC_SC   
 1279     1    POSRES_FC_SC    POSRES_FC_SC    POSRES_FC_SC   
 1281     1    POSRES_FC_SC    POSRES_FC_SC    POSRES_FC_SC   
 1283     1    POSRES_FC_BB    POSRES_FC_BB    POSRES_FC_BB   
 1285     1    POSRES_FC_BB    POSRES_FC_BB    POSRES_FC_BB   
 1286     1    POSRES_FC_BB    POSRES_FC_BB    POSRES_FC_BB   
 1287     1    POSRES_FC_BB    POSRES_FC_BB    POSRES_FC_BB   
 1288     1    POSRES_FC_BB    POSRES_FC_BB    POSRES_FC_BB   
 1289     1    POSRES_FC_BB    POSRES_FC_BB    POSRES_FC_BB   
 1290     1    POSRES_FC_BB    POSRES_FC_BB    POSRES_FC_BB   
 1293     1    POSRES_FC_BB    POSRES_FC_BB    POSRES_FC_BB   
 1295     1    POSRES_FC_SC    POSRES_FC_SC    POSRES_FC_SC   
 1296     1    POSRES_FC_SC    POSRES_FC_SC    POSRES_FC_SC   
 1298     1    POSRES_FC_SC    POSRES_FC_SC    POSRES_FC_SC   
 1299     1    POSRES_FC_SC    POSRES_FC_SC    POSRES_FC_SC   
 1300     1    POSRES_FC_SC    POSRES_FC_SC    POSRES_FC_SC   
 1301     1    POSRES_FC_SC    POSRES_FC_SC    POSRES_FC_SC   
 1303     1    POSRES_FC_SC    POSRES_FC_SC    POSRES_FC_SC   
 1304     1    POSRES_FC_SC    POSRES_FC_SC    POSRES_FC_SC   
 1306     1    POSRES_FC_SC    POSRES_FC_SC    POSRES_FC_SC   
 1307     1    POSRES_FC_SC    POSRES_FC_SC    POSRES_FC_SC   
 1308     1    POSRES_FC_SC    POSRES_FC_SC    POSRES_FC_SC   
 1309     1    POSRES_FC_SC    POSRES_FC_SC    POSRES_FC_SC   
 1312     1    POSRES_FC_SC    POSRES_FC_SC    POSRES_FC_SC   
 1314     1    POSRES_FC_SC    POSRES_FC_SC    POSRES_FC_SC   
 1316     1    POSRES_FC_BB    POSRES_FC_BB    POSRES_FC_BB   
 1318     1    POSRES_FC_BB    POSRES_FC_BB    POSRES_FC_BB   
 1319     1    POSRES_FC_BB    POSRES_FC_BB    POSRES_FC_BB   
 1320     1    POSRES_FC_BB    POSRES_FC_BB    POSRES_FC_BB   
 1321     1    POSRES_FC_BB    POSRES_FC_BB    POSRES_FC_BB   
 1322     1    POSRES_FC_BB    POSRES_FC_BB    POSRES_FC_BB   
 1323     1    POSRES_FC_BB    POSRES_FC_BB    POSRES_FC_BB   
 1326     1    POSRES_FC_BB    POSRES_FC_BB    POSRES_FC_BB   
 1328     1    POSRES_FC_SC    POSRES_FC_SC    POSRES_FC_SC   
 1329     1    POSRES_FC_SC    POSRES_FC_SC    POSRES_FC_SC   
 1331     1    POSRES_FC_SC    POSRES_FC_SC    POSRES_FC_SC   
 1332     1    POSRES_FC_SC    POSRES_FC_SC    POSRES_FC_SC   
 1333     1    POSRES_FC_SC    POSRES_FC_SC    POSRES_FC_SC   
 1334     1    POSRES_FC_SC    POSRES_FC_SC    POSRES_FC_SC   
 1336     1    POSRES_FC_SC    POSRES_FC_SC    POSRES_FC_SC   
 1337     1    POSRES_FC_SC    POSRES_FC_SC    POSRES_FC_SC   
 1339     1    POSRES_FC_SC    POSRES_FC_SC    POSRES_FC_SC   
 1340     1    POSRES_FC_SC    POSRES_FC_SC    POSRES_FC_SC   
 1341     1    POSRES_FC_SC    POSRES_FC_SC    POSRES_FC_SC   
 1342     1    POSRES_FC_SC    POSRES_FC_SC    POSRES_FC_SC   
 1345     1    POSRES_FC_SC    POSRES_FC_SC    POSRES_FC_SC   
 1347     1    POSRES_FC_SC    POSRES_FC_SC    POSRES_FC_SC   
 1349     1    POSRES_FC_BB    POSRES_FC_BB    POSRES_FC_BB   
 1351     1    POSRES_FC_BB    POSRES_FC_BB    POSRES_FC_BB   
 1352     1    POSRES_FC_BB    POSRES_FC_BB    POSRES_FC_BB   
 1353     1    POSRES_FC_BB    POSRES_FC_BB    POSRES_FC_BB   
 1354     1    POSRES_FC_BB    POSRES_FC_BB    POSRES_FC_BB   
 1355     1    POSRES_FC_BB    POSRES_FC_BB    POSRES_FC_BB   
 1356     1    POSRES_FC_BB    POSRES_FC_BB    POSRES_FC_BB   
 1359     1    POSRES_FC_BB    POSRES_FC_BB    POSRES_FC_BB   
 1361     1    POSRES_FC_SC    POSRES_FC_SC    POSRES_FC_SC   
 1362     1    POSRES_FC_SC    POSRES_FC_SC    POSRES_FC_SC   
 1364     1    POSRES_FC_SC    POSRES_FC_SC    POSRES_FC_SC   
 1365     1    POSRES_FC_SC    POSRES_FC_SC    POSRES_FC_SC   
 1367     1    POSRES_FC_SC    POSRES_FC_SC    POSRES_FC_SC   
 1368     1    POSRES_FC_SC    POSRES_FC_SC    POSRES_FC_SC   
 1369     1    POSRES_FC_SC    POSRES_FC_SC    POSRES_FC_SC   
 1371     1    POSRES_FC_SC    POSRES_FC_SC    POSRES_FC_SC   
 1372     1    POSRES_FC_SC    POSRES_FC_SC    POSRES_FC_SC   
 1373     1    POSRES_FC_SC    POSRES_FC_SC    POSRES_FC_SC   
 1375     1    POSRES_FC_SC    POSRES_FC_SC    POSRES_FC_SC   
 1377     1    POSRES_FC_SC    POSRES_FC_SC    POSRES_FC_SC   
 1379     1    POSRES_FC_BB    POSRES_FC_BB    POSRES_FC_BB   
 1381     1    POSRES_FC_BB    POSRES_FC_BB    POSRES_FC_BB   
 1382     1    POSRES_FC_BB    POSRES_FC_BB    POSRES_FC_BB   
 1383     1    POSRES_FC_BB    POSRES_FC_BB    POSRES_FC_BB   
 1384     1    POSRES_FC_BB    POSRES_FC_BB    POSRES_FC_BB   
 1385     1    POSRES_FC_BB    POSRES_FC_BB    POSRES_FC_BB   
 1386     1    POSRES_FC_BB    POSRES_FC_BB    POSRES_FC_BB   
 1389     1    POSRES_FC_BB    POSRES_FC_BB    POSRES_FC_BB   
 1391     1    POSRES_FC_SC    POSRES_FC_SC    POSRES_FC_SC   
 1392     1    POSRES_FC_SC    POSRES_FC_SC    POSRES_FC_SC   
 1394     1    POSRES_FC_SC    POSRES_FC_SC    POSRES_FC_SC   
 1395     1    POSRES_FC_SC    POSRES_FC_SC    POSRES_FC_SC   
 1396     1    POSRES_FC_SC    POSRES_FC_SC    POSRES_FC_SC   
 1397     1    POSRES_FC_SC    POSRES_FC_SC    POSRES_FC_SC   
 1399     1    POSRES_FC_SC    POSRES_FC_SC    POSRES_FC_SC   
 1400     1    POSRES_FC_SC    POSRES_FC_SC    POSRES_FC_SC   
 1402     1    POSRES_FC_SC    POSRES_FC_SC    POSRES_FC_SC   
 1403     1    POSRES_FC_SC    POSRES_FC_SC    POSRES_FC_SC   
 1404     1    POSRES_FC_SC    POSRES_FC_SC    POSRES_FC_SC   
 1405     1    POSRES_FC_SC    POSRES_FC_SC    POSRES_FC_SC   
 1408     1    POSRES_FC_SC    POSRES_FC_SC    POSRES_FC_SC   
 1410     1    POSRES_FC_SC    POSRES_FC_SC    POSRES_FC_SC   
 1412     1    POSRES_FC_BB    POSRES_FC_BB    POSRES_FC_BB   
 1414     1    POSRES_FC_BB    POSRES_FC_BB    POSRES_FC_BB   
 1415     1    POSRES_FC_BB    POSRES_FC_BB    POSRES_FC_BB   
 1416     1    POSRES_FC_BB    POSRES_FC_BB    POSRES_FC_BB   
 1417     1    POSRES_FC_BB    POSRES_FC_BB    POSRES_FC_BB   
 1418     1    POSRES_FC_BB    POSRES_FC_BB    POSRES_FC_BB   
 1419     1    POSRES_FC_BB    POSRES_FC_BB    POSRES_FC_BB   
 1422     1    POSRES_FC_BB    POSRES_FC_BB    POSRES_FC_BB   
 1424     1    POSRES_FC_SC    POSRES_FC_SC    POSRES_FC_SC   
 1425     1    POSRES_FC_SC    POSRES_FC_SC    POSRES_FC_SC   
 1427     1    POSRES_FC_SC    POSRES_FC_SC    POSRES_FC_SC   
 1428     1    POSRES_FC_SC    POSRES_FC_SC    POSRES_FC_SC   
 1430     1    POSRES_FC_SC    POSRES_FC_SC    POSRES_FC_SC   
 1432     1    POSRES_FC_SC    POSRES_FC_SC    POSRES_FC_SC   
 1433     1    POSRES_FC_SC    POSRES_FC_SC    POSRES_FC_SC   
 1434     1    POSRES_FC_SC    POSRES_FC_SC    POSRES_FC_SC   
 1435     1    POSRES_FC_SC    POSRES_FC_SC    POSRES_FC_SC   
 1436     1    POSRES_FC_SC    POSRES_FC_SC    POSRES_FC_SC   
 1439     1    POSRES_FC_SC    POSRES_FC_SC    POSRES_FC_SC   
 1441     1    POSRES_FC_SC    POSRES_FC_SC    POSRES_FC_SC   
 1443     1    POSRES_FC_BB    POSRES_FC_BB    POSRES_FC_BB   
 1445     1    POSRES_FC_BB    POSRES_FC_BB    POSRES_FC_BB   
 1446     1    POSRES_FC_BB    POSRES_FC_BB    POSRES_FC_BB   
 1447     1    POSRES_FC_BB    POSRES_FC_BB    POSRES_FC_BB   
 1448     1    POSRES_FC_BB    POSRES_FC_BB    POSRES_FC_BB   
 1449     1    POSRES_FC_BB    POSRES_FC_BB    POSRES_FC_BB   
 1450     1    POSRES_FC_BB    POSRES_FC_BB    POSRES_FC_BB   
 1453     1    POSRES_FC_BB    POSRES_FC_BB    POSRES_FC_BB   
 1455     1    POSRES_FC_SC    POSRES_FC_SC    POSRES_FC_SC   
 1456     1    POSRES_FC_SC    POSRES_FC_SC    POSRES_FC_SC   
 1458     1    POSRES_FC_SC    POSRES_FC_SC    POSRES_FC_SC   
 1459     1    POSRES_FC_SC    POSRES_FC_SC    POSRES_FC_SC   
 1461     1    POSRES_FC_SC    POSRES_FC_SC    POSRES_FC_SC   
 1463     1    POSRES_FC_SC    POSRES_FC_SC    POSRES_FC_SC   
 1464     1    POSRES_FC_SC    POSRES_FC_SC    POSRES_FC_SC   
 1465     1    POSRES_FC_SC    POSRES_FC_SC    POSRES_FC_SC   
 1466     1    POSRES_FC_SC    POSRES_FC_SC    POSRES_FC_SC   
 1467     1    POSRES_FC_SC    POSRES_FC_SC    POSRES_FC_SC   
 1470     1    POSRES_FC_SC    POSRES_FC_SC    POSRES_FC_SC   
 1472     1    POSRES_FC_SC    POSRES_FC_SC    POSRES_FC_SC   
 1474     1    POSRES_FC_BB    POSRES_FC_BB    POSRES_FC_BB   
 1476     1    POSRES_FC_BB    POSRES_FC_BB    POSRES_FC_BB   
 1477     1    POSRES_FC_BB    POSRES_FC_BB    POSRES_FC_BB   
 1478     1    POSRES_FC_BB    POSRES_FC_BB    POSRES_FC_BB   
 1479     1    POSRES_FC_BB    POSRES_FC_BB    POSRES_FC_BB   
 1480     1    POSRES_FC_BB    POSRES_FC_BB    POSRES_FC_BB   
 1481     1    POSRES_FC_BB    POSRES_FC_BB    POSRES_FC_BB   
 1484     1    POSRES_FC_BB    POSRES_FC_BB    POSRES_FC_BB   
 1486     1    POSRES_FC_SC    POSRES_FC_SC    POSRES_FC_SC   
 1487     1    POSRES_FC_SC    POSRES_FC_SC    POSRES_FC_SC   
 1489     1    POSRES_FC_SC    POSRES_FC_SC    POSRES_FC_SC   
 1490     1    POSRES_FC_SC    POSRES_FC_SC    POSRES_FC_SC   
 1492     1    POSRES_FC_SC    POSRES_FC_SC    POSRES_FC_SC   
 1494     1    POSRES_FC_SC    POSRES_FC_SC    POSRES_FC_SC   
 1495     1    POSRES_FC_SC    POSRES_FC_SC    POSRES_FC_SC   
 1496     1    POSRES_FC_SC    POSRES_FC_SC    POSRES_FC_SC   
 1497     1    POSRES_FC_SC    POSRES_FC_SC    POSRES_FC_SC   
 1498     1    POSRES_FC_SC    POSRES_FC_SC    POSRES_FC_SC   
 1501     1    POSRES_FC_SC    POSRES_FC_SC    POSRES_FC_SC   
 1503     1    POSRES_FC_SC    POSRES_FC_SC    POSRES_FC_SC   
 1505     1    POSRES_FC_BB    POSRES_FC_BB    POSRES_FC_BB   
 1507     1    POSRES_FC_BB    POSRES_FC_BB    POSRES_FC_BB   
 1508     1    POSRES_FC_BB    POSRES_FC_BB    POSRES_FC_BB   
 1509     1    POSRES_FC_BB    POSRES_FC_BB    POSRES_FC_BB   
 1510     1    POSRES_FC_BB    POSRES_FC_BB    POSRES_FC_BB   
 1511     1    POSRES_FC_BB    POSRES_FC_BB    POSRES_FC_BB   
 1512     1    POSRES_FC_BB    POSRES_FC_BB    POSRES_FC_BB   
 1515     1    POSRES_FC_BB    POSRES_FC_BB    POSRES_FC_BB   
 1517     1    POSRES_FC_SC    POSRES_FC_SC    POSRES_FC_SC   
 1518     1    POSRES_FC_SC    POSRES_FC_SC    POSRES_FC_SC   
 1520     1    POSRES_FC_SC    POSRES_FC_SC    POSRES_FC_SC   
 1521     1    POSRES_FC_SC    POSRES_FC_SC    POSRES_FC_SC   
 1522     1    POSRES_FC_SC    POSRES_FC_SC    POSRES_FC_SC   
 1525     1    POSRES_FC_SC    POSRES_FC_SC    POSRES_FC_SC   
 1526     1    POSRES_FC_SC    POSRES_FC_SC    POSRES_FC_SC   
 1527     1    POSRES_FC_SC    POSRES_FC_SC    POSRES_FC_SC   
 1529     1    POSRES_FC_SC    POSRES_FC_SC    POSRES_FC_SC   
 1530     1    POSRES_FC_SC    POSRES_FC_SC    POSRES_FC_SC   
 1531     1    POSRES_FC_SC    POSRES_FC_SC    POSRES_FC_SC   
 1532     1    POSRES_FC_SC    POSRES_FC_SC    POSRES_FC_SC   
 1533     1    POSRES_FC_SC    POSRES_FC_SC    POSRES_FC_SC   
 1535     1    POSRES_FC_SC    POSRES_FC_SC    POSRES_FC_SC   
 1537     1    POSRES_FC_SC    POSRES_FC_SC    POSRES_FC_SC   
 1539     1    POSRES_FC_BB    POSRES_FC_BB    POSRES_FC_BB   
 1541     1    POSRES_FC_BB    POSRES_FC_BB    POSRES_FC_BB   
 1542     1    POSRES_FC_BB    POSRES_FC_BB    POSRES_FC_BB   
 1543     1    POSRES_FC_BB    POSRES_FC_BB    POSRES_FC_BB   
 1544     1    POSRES_FC_BB    POSRES_FC_BB    POSRES_FC_BB   
 1545     1    POSRES_FC_BB    POSRES_FC_BB    POSRES_FC_BB   
 1546     1    POSRES_FC_BB    POSRES_FC_BB    POSRES_FC_BB   
 1549     1    POSRES_FC_BB    POSRES_FC_BB    POSRES_FC_BB   
 1551     1    POSRES_FC_SC    POSRES_FC_SC    POSRES_FC_SC   
 1552     1    POSRES_FC_SC    POSRES_FC_SC    POSRES_FC_SC   
 1554     1    POSRES_FC_SC    POSRES_FC_SC    POSRES_FC_SC   
 1555     1    POSRES_FC_SC    POSRES_FC_SC    POSRES_FC_SC   
 1557     1    POSRES_FC_SC    POSRES_FC_SC    POSRES_FC_SC   
 1558     1    POSRES_FC_SC    POSRES_FC_SC    POSRES_FC_SC   
 1559     1    POSRES_FC_SC    POSRES_FC_SC    POSRES_FC_SC   
 1561     1    POSRES_FC_SC    POSRES_FC_SC    POSRES_FC_SC   
 1562     1    POSRES_FC_SC    POSRES_FC_SC    POSRES_FC_SC   
 1563     1    POSRES_FC_SC    POSRES_FC_SC    POSRES_FC_SC   
 1565     1    POSRES_FC_SC    POSRES_FC_SC    POSRES_FC_SC   
 1567     1    POSRES_FC_SC    POSRES_FC_SC    POSRES_FC_SC   
 1569     1    POSRES_FC_BB    POSRES_FC_BB    POSRES_FC_BB   
 1571     1    POSRES_FC_BB    POSRES_FC_BB    POSRES_FC_BB   
 1572     1    POSRES_FC_BB    POSRES_FC_BB    POSRES_FC_BB   
 1573     1    POSRES_FC_BB    POSRES_FC_BB    POSRES_FC_BB   
 1574     1    POSRES_FC_BB    POSRES_FC_BB    POSRES_FC_BB   
 1575     1    POSRES_FC_BB    POSRES_FC_BB    POSRES_FC_BB   
 1576     1    POSRES_FC_BB    POSRES_FC_BB    POSRES_FC_BB   
 1579     1    POSRES_FC_BB    POSRES_FC_BB    POSRES_FC_BB   
 1581     1    POSRES_FC_SC    POSRES_FC_SC    POSRES_FC_SC   
 1582     1    POSRES_FC_SC    POSRES_FC_SC    POSRES_FC_SC   
 1584     1    POSRES_FC_SC    POSRES_FC_SC    POSRES_FC_SC   
 1585     1    POSRES_FC_SC    POSRES_FC_SC    POSRES_FC_SC   
 1586     1    POSRES_FC_SC    POSRES_FC_SC    POSRES_FC_SC   
 1587     1    POSRES_FC_SC    POSRES_FC_SC    POSRES_FC_SC   
 1589     1    POSRES_FC_SC    POSRES_FC_SC    POSRES_FC_SC   
 1590     1    POSRES_FC_SC    POSRES_FC_SC    POSRES_FC_SC   
 1592     1    POSRES_FC_SC    POSRES_FC_SC    POSRES_FC_SC   
 1593     1    POSRES_FC_SC    POSRES_FC_SC    POSRES_FC_SC   
 1594     1    POSRES_FC_SC    POSRES_FC_SC    POSRES_FC_SC   
 1595     1    POSRES_FC_SC    POSRES_FC_SC    POSRES_FC_SC   
 1598     1    POSRES_FC_SC    POSRES_FC_SC    POSRES_FC_SC   
 1600     1    POSRES_FC_SC    POSRES_FC_SC    POSRES_FC_SC   
 1602     1    POSRES_FC_BB    POSRES_FC_BB    POSRES_FC_BB   
 1604     1    POSRES_FC_BB    POSRES_FC_BB    POSRES_FC_BB   
 1605     1    POSRES_FC_BB    POSRES_FC_BB    POSRES_FC_BB   
 1606     1    POSRES_FC_BB    POSRES_FC_BB    POSRES_FC_BB   
 1607     1    POSRES_FC_BB    POSRES_FC_BB    POSRES_FC_BB   
 1608     1    POSRES_FC_BB    POSRES_FC_BB    POSRES_FC_BB   
 1609     1    POSRES_FC_BB    POSRES_FC_BB    POSRES_FC_BB   
 1612     1    POSRES_FC_BB    POSRES_FC_BB    POSRES_FC_BB   
 1614     1    POSRES_FC_SC    POSRES_FC_SC    POSRES_FC_SC   
 1615     1    POSRES_FC_SC    POSRES_FC_SC    POSRES_FC_SC   
 1617     1    POSRES_FC_SC    POSRES_FC_SC    POSRES_FC_SC   
 1618     1    POSRES_FC_SC    POSRES_FC_SC    POSRES_FC_SC   
 1620     1    POSRES_FC_SC    POSRES_FC_SC    POSRES_FC_SC   
 1621     1    POSRES_FC_SC    POSRES_FC_SC    POSRES_FC_SC   
 1622     1    POSRES_FC_SC    POSRES_FC_SC    POSRES_FC_SC   
 1624     1    POSRES_FC_SC    POSRES_FC_SC    POSRES_FC_SC   
 1625     1    POSRES_FC_SC    POSRES_FC_SC    POSRES_FC_SC   
 1626     1    POSRES_FC_SC    POSRES_FC_SC    POSRES_FC_SC   
 1628     1    POSRES_FC_SC    POSRES_FC_SC    POSRES_FC_SC   
 1630     1    POSRES_FC_SC    POSRES_FC_SC    POSRES_FC_SC   
 1632     1    POSRES_FC_BB    POSRES_FC_BB    POSRES_FC_BB   
 1634     1    POSRES_FC_BB    POSRES_FC_BB    POSRES_FC_BB   
 1635     1    POSRES_FC_BB    POSRES_FC_BB    POSRES_FC_BB   
 1636     1    POSRES_FC_BB    POSRES_FC_BB    POSRES_FC_BB   
 1637     1    POSRES_FC_BB    POSRES_FC_BB    POSRES_FC_BB   
 1638     1    POSRES_FC_BB    POSRES_FC_BB    POSRES_FC_BB   
 1639     1    POSRES_FC_BB    POSRES_FC_BB    POSRES_FC_BB   
 1642     1    POSRES_FC_BB    POSRES_FC_BB    POSRES_FC_BB   
 1644     1    POSRES_FC_SC    POSRES_FC_SC    POSRES_FC_SC   
 1645     1    POSRES_FC_SC    POSRES_FC_SC    POSRES_FC_SC   
 1647     1    POSRES_FC_SC    POSRES_FC_SC    POSRES_FC_SC   
 1648     1    POSRES_FC_SC    POSRES_FC_SC    POSRES_FC_SC   
 1650     1    POSRES_FC_SC    POSRES_FC_SC    POSRES_FC_SC   
 1652     1    POSRES_FC_SC    POSRES_FC_SC    POSRES_FC_SC   
 1653     1    POSRES_FC_SC    POSRES_FC_SC    POSRES_FC_SC   
 1654     1    POSRES_FC_SC    POSRES_FC_SC    POSRES_FC_SC   
 1655     1    POSRES_FC_SC    POSRES_FC_SC    POSRES_FC_SC   
 1656     1    POSRES_FC_SC    POSRES_FC_SC    POSRES_FC_SC   
 1659     1    POSRES_FC_SC    POSRES_FC_SC    POSRES_FC_SC   
 1661     1    POSRES_FC_SC    POSRES_FC_SC    POSRES_FC_SC   
 1663     1    POSRES_FC_BB    POSRES_FC_BB    POSRES_FC_BB   
 1665     1    POSRES_FC_BB    POSRES_FC_BB    POSRES_FC_BB   
 1666     1    POSRES_FC_BB    POSRES_FC_BB    POSRES_FC_BB   
 1667     1    POSRES_FC_BB    POSRES_FC_BB    POSRES_FC_BB   
 1668     1    POSRES_FC_BB    POSRES_FC_BB    POSRES_FC_BB   
 1669     1    POSRES_FC_BB    POSRES_FC_BB    POSRES_FC_BB   
 1670     1    POSRES_FC_BB    POSRES_FC_BB    POSRES_FC_BB   
 1673     1    POSRES_FC_BB    POSRES_FC_BB    POSRES_FC_BB   
 1675     1    POSRES_FC_SC    POSRES_FC_SC    POSRES_FC_SC   
 1676     1    POSRES_FC_SC    POSRES_FC_SC    POSRES_FC_SC   
 1678     1    POSRES_FC_SC    POSRES_FC_SC    POSRES_FC_SC   
 1679     1    POSRES_FC_SC    POSRES_FC_SC    POSRES_FC_SC   
 1680     1    POSRES_FC_SC    POSRES_FC_SC    POSRES_FC_SC   
 1681     1    POSRES_FC_SC    POSRES_FC_SC    POSRES_FC_SC   
 1683     1    POSRES_FC_SC    POSRES_FC_SC    POSRES_FC_SC   
 1684     1    POSRES_FC_SC    POSRES_FC_SC    POSRES_FC_SC   
 1686     1    POSRES_FC_SC    POSRES_FC_SC    POSRES_FC_SC   
 1687     1    POSRES_FC_SC    POSRES_FC_SC    POSRES_FC_SC   
 1688     1    POSRES_FC_SC    POSRES_FC_SC    POSRES_FC_SC   
 1689     1    POSRES_FC_SC    POSRES_FC_SC    POSRES_FC_SC   
 1692     1    POSRES_FC_SC    POSRES_FC_SC    POSRES_FC_SC   
 1694     1    POSRES_FC_SC    POSRES_FC_SC    POSRES_FC_SC   
 1696     1    POSRES_FC_BB    POSRES_FC_BB    POSRES_FC_BB   
 1698     1    POSRES_FC_BB    POSRES_FC_BB    POSRES_FC_BB   
 1699     1    POSRES_FC_BB    POSRES_FC_BB    POSRES_FC_BB   
 1700     1    POSRES_FC_BB    POSRES_FC_BB    POSRES_FC_BB   
 1701     1    POSRES_FC_BB    POSRES_FC_BB    POSRES_FC_BB   
 1702     1    POSRES_FC_BB    POSRES_FC_BB    POSRES_FC_BB   
 1703     1    POSRES_FC_BB    POSRES_FC_BB    POSRES_FC_BB   
 1706     1    POSRES_FC_BB    POSRES_FC_BB    POSRES_FC_BB   
 1708     1    POSRES_FC_SC    POSRES_FC_SC    POSRES_FC_SC   
 1709     1    POSRES_FC_SC    POSRES_FC_SC    POSRES_FC_SC   
 1711     1    POSRES_FC_SC    POSRES_FC_SC    POSRES_FC_SC   
 1712     1    POSRES_FC_SC    POSRES_FC_SC    POSRES_FC_SC   
 1714     1    POSRES_FC_SC    POSRES_FC_SC    POSRES_FC_SC   
 1716     1    POSRES_FC_SC    POSRES_FC_SC    POSRES_FC_SC   
 1717     1    POSRES_FC_SC    POSRES_FC_SC    POSRES_FC_SC   
 1718     1    POSRES_FC_SC    POSRES_FC_SC    POSRES_FC_SC   
 1719     1    POSRES_FC_SC    POSRES_FC_SC    POSRES_FC_SC   
 1720     1    POSRES_FC_SC    POSRES_FC_SC    POSRES_FC_SC   
 1723     1    POSRES_FC_SC    POSRES_FC_SC    POSRES_FC_SC   
 1725     1    POSRES_FC_SC    POSRES_FC_SC    POSRES_FC_SC   
 1727     1    POSRES_FC_BB    POSRES_FC_BB    POSRES_FC_BB   
 1729     1    POSRES_FC_BB    POSRES_FC_BB    POSRES_FC_BB   
 1730     1    POSRES_FC_BB    POSRES_FC_BB    POSRES_FC_BB   
 1731     1    POSRES_FC_BB    POSRES_FC_BB    POSRES_FC_BB   
 1732     1    POSRES_FC_BB    POSRES_FC_BB    POSRES_FC_BB   
 1733     1    POSRES_FC_BB    POSRES_FC_BB    POSRES_FC_BB   
 1734     1    POSRES_FC_BB    POSRES_FC_BB    POSRES_FC_BB   
 1737     1    POSRES_FC_BB    POSRES_FC_BB    POSRES_FC_BB   
 1739     1    POSRES_FC_SC    POSRES_FC_SC    POSRES_FC_SC   
 1740     1    POSRES_FC_SC    POSRES_FC_SC    POSRES_FC_SC   
 1742     1    POSRES_FC_SC    POSRES_FC_SC    POSRES_FC_SC   
 1743     1    POSRES_FC_SC    POSRES_FC_SC    POSRES_FC_SC   
 1745     1    POSRES_FC_SC    POSRES_FC_SC    POSRES_FC_SC   
 1747     1    POSRES_FC_SC    POSRES_FC_SC    POSRES_FC_SC   
 1748     1    POSRES_FC_SC    POSRES_FC_SC    POSRES_FC_SC   
 1749     1    POSRES_FC_SC    POSRES_FC_SC    POSRES_FC_SC   
 1750     1    POSRES_FC_SC    POSRES_FC_SC    POSRES_FC_SC   
 1751     1    POSRES_FC_SC    POSRES_FC_SC    POSRES_FC_SC   
 1754     1    POSRES_FC_SC    POSRES_FC_SC    POSRES_FC_SC   
 1756     1    POSRES_FC_SC    POSRES_FC_SC    POSRES_FC_SC   
 1758     1    POSRES_FC_BB    POSRES_FC_BB    POSRES_FC_BB   
 1760     1    POSRES_FC_BB    POSRES_FC_BB    POSRES_FC_BB   
 1761     1    POSRES_FC_BB    POSRES_FC_BB    POSRES_FC_BB   
 1762     1    POSRES_FC_BB    POSRES_FC_BB    POSRES_FC_BB   
 1763     1    POSRES_FC_BB    POSRES_FC_BB    POSRES_FC_BB   
 1764     1    POSRES_FC_BB    POSRES_FC_BB    POSRES_FC_BB   
 1765     1    POSRES_FC_BB    POSRES_FC_BB    POSRES_FC_BB   
 1768     1    POSRES_FC_BB    POSRES_FC_BB    POSRES_FC_BB   
 1770     1    POSRES_FC_SC    POSRES_FC_SC    POSRES_FC_SC   
 1771     1    POSRES_FC_SC    POSRES_FC_SC    POSRES_FC_SC   
 1773     1    POSRES_FC_SC    POSRES_FC_SC    POSRES_FC_SC   
 1774     1    POSRES_FC_SC    POSRES_FC_SC    POSRES_FC_SC   
 1776     1    POSRES_FC_SC    POSRES_FC_SC    POSRES_FC_SC   
 1777     1    POSRES_FC_SC    POSRES_FC_SC    POSRES_FC_SC   
 1778     1    POSRES_FC_SC    POSRES_FC_SC    POSRES_FC_SC   
 1780     1    POSRES_FC_SC    POSRES_FC_SC    POSRES_FC_SC   
 1781     1    POSRES_FC_SC    POSRES_FC_SC    POSRES_FC_SC   
 1782     1    POSRES_FC_SC    POSRES_FC_SC    POSRES_FC_SC   
 1784     1    POSRES_FC_SC    POSRES_FC_SC    POSRES_FC_SC   
 1786     1    POSRES_FC_SC    POSRES_FC_SC    POSRES_FC_SC   
 1788     1    POSRES_FC_BB    POSRES_FC_BB    POSRES_FC_BB   
 1790     1    POSRES_FC_BB    POSRES_FC_BB    POSRES_FC_BB   
 1791     1    POSRES_FC_BB    POSRES_FC_BB    POSRES_FC_BB   
 1792     1    POSRES_FC_BB    POSRES_FC_BB    POSRES_FC_BB   
 1793     1    POSRES_FC_BB    POSRES_FC_BB    POSRES_FC_BB   
 1794     1    POSRES_FC_BB    POSRES_FC_BB    POSRES_FC_BB   
 1795     1    POSRES_FC_BB    POSRES_FC_BB    POSRES_FC_BB   
 1798     1    POSRES_FC_BB    POSRES_FC_BB    POSRES_FC_BB   
 1800     1    POSRES_FC_SC    POSRES_FC_SC    POSRES_FC_SC   
 1801     1    POSRES_FC_SC    POSRES_FC_SC    POSRES_FC_SC   
 1803     1    POSRES_FC_SC    POSRES_FC_SC    POSRES_FC_SC   
 1804     1    POSRES_FC_SC    POSRES_FC_SC    POSRES_FC_SC   
 1805     1    POSRES_FC_SC    POSRES_FC_SC    POSRES_FC_SC   
 1808     1    POSRES_FC_SC    POSRES_FC_SC    POSRES_FC_SC   
 1809     1    POSRES_FC_SC    POSRES_FC_SC    POSRES_FC_SC   
 1810     1    POSRES_FC_SC    POSRES_FC_SC    POSRES_FC_SC   
 1812     1    POSRES_FC_SC    POSRES_FC_SC    POSRES_FC_SC   
 1813     1    POSRES_FC_SC    POSRES_FC_SC    POSRES_FC_SC   
 1814     1    POSRES_FC_SC    POSRES_FC_SC    POSRES_FC_SC   
 1815     1    POSRES_FC_SC    POSRES_FC_SC    POSRES_FC_SC   
 1816     1    POSRES_FC_SC    POSRES_FC_SC    POSRES_FC_SC   
 1818     1    POSRES_FC_SC    POSRES_FC_SC    POSRES_FC_SC   
 1820     1    POSRES_FC_SC    POSRES_FC_SC    POSRES_FC_SC   
 1822     1    POSRES_FC_BB    POSRES_FC_BB    POSRES_FC_BB   
 1824     1    POSRES_FC_BB    POSRES_FC_BB    POSRES_FC_BB   
 1825     1    POSRES_FC_BB    POSRES_FC_BB    POSRES_FC_BB   
 1826     1    POSRES_FC_BB    POSRES_FC_BB    POSRES_FC_BB   
 1827     1    POSRES_FC_BB    POSRES_FC_BB    POSRES_FC_BB   
 1828     1    POSRES_FC_BB    POSRES_FC_BB    POSRES_FC_BB   
 1829     1    POSRES_FC_BB    POSRES_FC_BB    POSRES_FC_BB   
 1832     1    POSRES_FC_BB    POSRES_FC_BB    POSRES_FC_BB   
 1834     1    POSRES_FC_SC    POSRES_FC_SC    POSRES_FC_SC   
 1835     1    POSRES_FC_SC    POSRES_FC_SC    POSRES_FC_SC   
 1837     1    POSRES_FC_SC    POSRES_FC_SC    POSRES_FC_SC   
 1838     1    POSRES_FC_SC    POSRES_FC_SC    POSRES_FC_SC   
 1839     1    POSRES_FC_SC    POSRES_FC_SC    POSRES_FC_SC   
 1840     1    POSRES_FC_SC    POSRES_FC_SC    POSRES_FC_SC   
 1842     1    POSRES_FC_SC    POSRES_FC_SC    POSRES_FC_SC   
 1843     1    POSRES_FC_SC    POSRES_FC_SC    POSRES_FC_SC   
 1845     1    POSRES_FC_SC    POSRES_FC_SC    POSRES_FC_SC   
 1846     1    POSRES_FC_SC    POSRES_FC_SC    POSRES_FC_SC   
 1847     1    POSRES_FC_SC    POSRES_FC_SC    POSRES_FC_SC   
 1848     1    POSRES_FC_SC    POSRES_FC_SC    POSRES_FC_SC   
 1851     1    POSRES_FC_SC    POSRES_FC_SC    POSRES_FC_SC   
 1853     1    POSRES_FC_SC    POSRES_FC_SC    POSRES_FC_SC   
 1855     1    POSRES_FC_BB    POSRES_FC_BB    POSRES_FC_BB   
 1857     1    POSRES_FC_BB    POSRES_FC_BB    POSRES_FC_BB   
 1858     1    POSRES_FC_BB    POSRES_FC_BB    POSRES_FC_BB   
 1859     1    POSRES_FC_BB    POSRES_FC_BB    POSRES_FC_BB   
 1860     1    POSRES_FC_BB    POSRES_FC_BB    POSRES_FC_BB   
 1861     1    POSRES_FC_BB    POSRES_FC_BB    POSRES_FC_BB   
 1862     1    POSRES_FC_BB    POSRES_FC_BB    POSRES_FC_BB   
 1865     1    POSRES_FC_BB    POSRES_FC_BB    POSRES_FC_BB   
 1867     1    POSRES_FC_SC    POSRES_FC_SC    POSRES_FC_SC   
 1868     1    POSRES_FC_SC    POSRES_FC_SC    POSRES_FC_SC   
 1870     1    POSRES_FC_SC    POSRES_FC_SC    POSRES_FC_SC   
 1871     1    POSRES_FC_SC    POSRES_FC_SC    POSRES_FC_SC   
 1873     1    POSRES_FC_SC    POSRES_FC_SC    POSRES_FC_SC   
 1874     1    POSRES_FC_SC    POSRES_FC_SC    POSRES_FC_SC   
 1875     1    POSRES_FC_SC    POSRES_FC_SC    POSRES_FC_SC   
 1877     1    POSRES_FC_SC    POSRES_FC_SC    POSRES_FC_SC   
 1878     1    POSRES_FC_SC    POSRES_FC_SC    POSRES_FC_SC   
 1879     1    POSRES_FC_SC    POSRES_FC_SC    POSRES_FC_SC   
 1881     1    POSRES_FC_SC    POSRES_FC_SC    POSRES_FC_SC   
 1883     1    POSRES_FC_SC    POSRES_FC_SC    POSRES_FC_SC   
 1885     1    POSRES_FC_BB    POSRES_FC_BB    POSRES_FC_BB   
 1887     1    POSRES_FC_BB    POSRES_FC_BB    POSRES_FC_BB   
 1888     1    POSRES_FC_BB    POSRES_FC_BB    POSRES_FC_BB   
 1889     1    POSRES_FC_BB    POSRES_FC_BB    POSRES_FC_BB   
 1890     1    POSRES_FC_BB    POSRES_FC_BB    POSRES_FC_BB   
 1891     1    POSRES_FC_BB    POSRES_FC_BB    POSRES_FC_BB   
 1892     1    POSRES_FC_BB    POSRES_FC_BB    POSRES_FC_BB   
 1895     1    POSRES_FC_BB    POSRES_FC_BB    POSRES_FC_BB   
 1897     1    POSRES_FC_SC    POSRES_FC_SC    POSRES_FC_SC   
 1898     1    POSRES_FC_SC    POSRES_FC_SC    POSRES_FC_SC   
 1900     1    POSRES_FC_SC    POSRES_FC_SC    POSRES_FC_SC   
 1901     1    POSRES_FC_SC    POSRES_FC_SC    POSRES_FC_SC   
 1903     1    POSRES_FC_SC    POSRES_FC_SC    POSRES_FC_SC   
 1905     1    POSRES_FC_SC    POSRES_FC_SC    POSRES_FC_SC   
 1906     1    POSRES_FC_SC    POSRES_FC_SC    POSRES_FC_SC   
 1907     1    POSRES_FC_SC    POSRES_FC_SC    POSRES_FC_SC   
 1908     1    POSRES_FC_SC    POSRES_FC_SC    POSRES_FC_SC   
 1909     1    POSRES_FC_SC    POSRES_FC_SC    POSRES_FC_SC   
 1912     1    POSRES_FC_SC    POSRES_FC_SC    POSRES_FC_SC   
 1914     1    POSRES_FC_SC    POSRES_FC_SC    POSRES_FC_SC   
 1916     1    POSRES_FC_BB    POSRES_FC_BB    POSRES_FC_BB   
 1918     1    POSRES_FC_BB    POSRES_FC_BB    POSRES_FC_BB   
 1919     1    POSRES_FC_BB    POSRES_FC_BB    POSRES_FC_BB   
 1920     1    POSRES_FC_BB    POSRES_FC_BB    POSRES_FC_BB   
 1921     1    POSRES_FC_BB    POSRES_FC_BB    POSRES_FC_BB   
 1922     1    POSRES_FC_BB    POSRES_FC_BB    POSRES_FC_BB   
 1923     1    POSRES_FC_BB    POSRES_FC_BB    POSRES_FC_BB   
 1926     1    POSRES_FC_BB    POSRES_FC_BB    POSRES_FC_BB   
 1928     1    POSRES_FC_SC    POSRES_FC_SC    POSRES_FC_SC   
 1929     1    POSRES_FC_SC    POSRES_FC_SC    POSRES_FC_SC   
 1931     1    POSRES_FC_SC    POSRES_FC_SC    POSRES_FC_SC   
 1932     1    POSRES_FC_SC    POSRES_FC_SC    POSRES_FC_SC   
 1934     1    POSRES_FC_SC    POSRES_FC_SC    POSRES_FC_SC   
 1935     1    POSRES_FC_SC    POSRES_FC_SC    POSRES_FC_SC   
 1936     1    POSRES_FC_SC    POSRES_FC_SC    POSRES_FC_SC   
 1938     1    POSRES_FC_SC    POSRES_FC_SC    POSRES_FC_SC   
 1939     1    POSRES_FC_SC    POSRES_FC_SC    POSRES_FC_SC   
 1940     1    POSRES_FC_SC    POSRES_FC_SC    POSRES_FC_SC   
 1942     1    POSRES_FC_SC    POSRES_FC_SC    POSRES_FC_SC   
 1944     1    POSRES_FC_SC    POSRES_FC_SC    POSRES_FC_SC   
 1946     1    POSRES_FC_BB    POSRES_FC_BB    POSRES_FC_BB   
 1948     1    POSRES_FC_BB    POSRES_FC_BB    POSRES_FC_BB   
 1949     1    POSRES_FC_BB    POSRES_FC_BB    POSRES_FC_BB   
 1950     1    POSRES_FC_BB    POSRES_FC_BB    POSRES_FC_BB   
 1951     1    POSRES_FC_BB    POSRES_FC_BB    POSRES_FC_BB   
 1952     1    POSRES_FC_BB    POSRES_FC_BB    POSRES_FC_BB   
 1953     1    POSRES_FC_BB    POSRES_FC_BB    POSRES_FC_BB   
 1956     1    POSRES_FC_BB    POSRES_FC_BB    POSRES_FC_BB   
 1958     1    POSRES_FC_SC    POSRES_FC_SC    POSRES_FC_SC   
 1959     1    POSRES_FC_SC    POSRES_FC_SC    POSRES_FC_SC   
 1961     1    POSRES_FC_SC    POSRES_FC_SC    POSRES_FC_SC   
 1962     1    POSRES_FC_SC    POSRES_FC_SC    POSRES_FC_SC   
 1963     1    POSRES_FC_SC    POSRES_FC_SC    POSRES_FC_SC   
 1966     1    POSRES_FC_SC    POSRES_FC_SC    POSRES_FC_SC   
 1967     1    POSRES_FC_SC    POSRES_FC_SC    POSRES_FC_SC   
 1968     1    POSRES_FC_SC    POSRES_FC_SC    POSRES_FC_SC   
 1970     1    POSRES_FC_SC    POSRES_FC_SC    POSRES_FC_SC   
 1971     1    POSRES_FC_SC    POSRES_FC_SC    POSRES_FC_SC   
 1972     1    POSRES_FC_SC    POSRES_FC_SC    POSRES_FC_SC   
 1973     1    POSRES_FC_SC    POSRES_FC_SC    POSRES_FC_SC   
 1974     1    POSRES_FC_SC    POSRES_FC_SC    POSRES_FC_SC   
 1976     1    POSRES_FC_SC    POSRES_FC_SC    POSRES_FC_SC   
 1978     1    POSRES_FC_SC    POSRES_FC_SC    POSRES_FC_SC   
 1980     1    POSRES_FC_BB    POSRES_FC_BB    POSRES_FC_BB   
 1982     1    POSRES_FC_BB    POSRES_FC_BB    POSRES_FC_BB   
 1983     1    POSRES_FC_BB    POSRES_FC_BB    POSRES_FC_BB   
 1984     1    POSRES_FC_BB    POSRES_FC_BB    POSRES_FC_BB   
 1985     1    POSRES_FC_BB    POSRES_FC_BB    POSRES_FC_BB   
 1986     1    POSRES_FC_BB    POSRES_FC_BB    POSRES_FC_BB   
 1987     1    POSRES_FC_BB    POSRES_FC_BB    POSRES_FC_BB   
 1990     1    POSRES_FC_BB    POSRES_FC_BB    POSRES_FC_BB   
 1992     1    POSRES_FC_SC    POSRES_FC_SC    POSRES_FC_SC   
 1993     1    POSRES_FC_SC    POSRES_FC_SC    POSRES_FC_SC   
 1995     1    POSRES_FC_SC    POSRES_FC_SC    POSRES_FC_SC   
 1996     1    POSRES_FC_SC    POSRES_FC_SC    POSRES_FC_SC   
 1997     1    POSRES_FC_SC    POSRES_FC_SC    POSRES_FC_SC   
 2000     1    POSRES_FC_SC    POSRES_FC_SC    POSRES_FC_SC   
 2001     1    POSRES_FC_SC    POSRES_FC_SC    POSRES_FC_SC   
 2002     1    POSRES_FC_SC    POSRES_FC_SC    POSRES_FC_SC   
 2004     1    POSRES_FC_SC    POSRES_FC_SC    POSRES_FC_SC   
 2005     1    POSRES_FC_SC    POSRES_FC_SC    POSRES_FC_SC   
 2006     1    POSRES_FC_SC    POSRES_FC_SC    POSRES_FC_SC   
 2007     1    POSRES_FC_SC    POSRES_FC_SC    POSRES_FC_SC   
 2008     1    POSRES_FC_SC    POSRES_FC_SC    POSRES_FC_SC   
 2010     1    POSRES_FC_SC    POSRES_FC_SC    POSRES_FC_SC   
 2012     1    POSRES_FC_SC    POSRES_FC_SC    POSRES_FC_SC   
 2014     1    POSRES_FC_BB    POSRES_FC_BB    POSRES_FC_BB   
 2016     1    POSRES_FC_BB    POSRES_FC_BB    POSRES_FC_BB   
 2017     1    POSRES_FC_BB    POSRES_FC_BB    POSRES_FC_BB   
 2018     1    POSRES_FC_BB    POSRES_FC_BB    POSRES_FC_BB   
 2019     1    POSRES_FC_BB    POSRES_FC_BB    POSRES_FC_BB   
 2020     1    POSRES_FC_BB    POSRES_FC_BB    POSRES_FC_BB   
 2021     1    POSRES_FC_BB    POSRES_FC_BB    POSRES_FC_BB   
 2024     1    POSRES_FC_BB    POSRES_FC_BB    POSRES_FC_BB   
 2026     1    POSRES_FC_SC    POSRES_FC_SC    POSRES_FC_SC   
 2027     1    POSRES_FC_SC    POSRES_FC_SC    POSRES_FC_SC   
 2029     1    POSRES_FC_SC    POSRES_FC_SC    POSRES_FC_SC   
 2030     1    POSRES_FC_SC    POSRES_FC_SC    POSRES_FC_SC   
 2031     1    POSRES_FC_SC    POSRES_FC_SC    POSRES_FC_SC   
 2032     1    POSRES_FC_SC    POSRES_FC_SC    POSRES_FC_SC   
 2034     1    POSRES_FC_SC    POSRES_FC_SC    POSRES_FC_SC   
 2035     1    POSRES_FC_SC    POSRES_FC_SC    POSRES_FC_SC   
 2037     1    POSRES_FC_SC    POSRES_FC_SC    POSRES_FC_SC   
 2038     1    POSRES_FC_SC    POSRES_FC_SC    POSRES_FC_SC   
 2039     1    POSRES_FC_SC    POSRES_FC_SC    POSRES_FC_SC   
 2040     1    POSRES_FC_SC    POSRES_FC_SC    POSRES_FC_SC   
 2043     1    POSRES_FC_SC    POSRES_FC_SC    POSRES_FC_SC   
 2045     1    POSRES_FC_SC    POSRES_FC_SC    POSRES_FC_SC   
 2047     1    POSRES_FC_BB    POSRES_FC_BB    POSRES_FC_BB   
 2049     1    POSRES_FC_BB    POSRES_FC_BB    POSRES_FC_BB   
 2050     1    POSRES_FC_BB    POSRES_FC_BB    POSRES_FC_BB   
 2051     1    POSRES_FC_BB    POSRES_FC_BB    POSRES_FC_BB   
 2052     1    POSRES_FC_BB    POSRES_FC_BB    POSRES_FC_BB   
 2053     1    POSRES_FC_BB    POSRES_FC_BB    POSRES_FC_BB   
 2054     1    POSRES_FC_BB    POSRES_FC_BB    POSRES_FC_BB   
 2057     1    POSRES_FC_BB    POSRES_FC_BB    POSRES_FC_BB   
 2059     1    POSRES_FC_SC    POSRES_FC_SC    POSRES_FC_SC   
 2060     1    POSRES_FC_SC    POSRES_FC_SC    POSRES_FC_SC   
 2062     1    POSRES_FC_SC    POSRES_FC_SC    POSRES_FC_SC   
 2063     1    POSRES_FC_SC    POSRES_FC_SC    POSRES_FC_SC   
 2065     1    POSRES_FC_SC    POSRES_FC_SC    POSRES_FC_SC   
 2066     1    POSRES_FC_SC    POSRES_FC_SC    POSRES_FC_SC   
 2067     1    POSRES_FC_SC    POSRES_FC_SC    POSRES_FC_SC   
 2069     1    POSRES_FC_SC    POSRES_FC_SC    POSRES_FC_SC   
 2070     1    POSRES_FC_SC    POSRES_FC_SC    POSRES_FC_SC   
 2071     1    POSRES_FC_SC    POSRES_FC_SC    POSRES_FC_SC   
 2073     1    POSRES_FC_SC    POSRES_FC_SC    POSRES_FC_SC   
 2075     1    POSRES_FC_SC    POSRES_FC_SC    POSRES_FC_SC   
 2077     1    POSRES_FC_BB    POSRES_FC_BB    POSRES_FC_BB   
 2079     1    POSRES_FC_BB    POSRES_FC_BB    POSRES_FC_BB   
 2080     1    POSRES_FC_BB    POSRES_FC_BB    POSRES_FC_BB   
 2081     1    POSRES_FC_BB    POSRES_FC_BB    POSRES_FC_BB   
 2082     1    POSRES_FC_BB    POSRES_FC_BB    POSRES_FC_BB   
 2083     1    POSRES_FC_BB    POSRES_FC_BB    POSRES_FC_BB   
 2084     1    POSRES_FC_BB    POSRES_FC_BB    POSRES_FC_BB   
 2087     1    POSRES_FC_BB    POSRES_FC_BB    POSRES_FC_BB   
 2089     1    POSRES_FC_SC    POSRES_FC_SC    POSRES_FC_SC   
 2090     1    POSRES_FC_SC    POSRES_FC_SC    POSRES_FC_SC   
 2092     1    POSRES_FC_SC    POSRES_FC_SC    POSRES_FC_SC   
 2093     1    POSRES_FC_SC    POSRES_FC_SC    POSRES_FC_SC   
 2094     1    POSRES_FC_SC    POSRES_FC_SC    POSRES_FC_SC   
 2095     1    POSRES_FC_SC    POSRES_FC_SC    POSRES_FC_SC   
 2097     1    POSRES_FC_SC    POSRES_FC_SC    POSRES_FC_SC   
 2098     1    POSRES_FC_SC    POSRES_FC_SC    POSRES_FC_SC   
 2100     1    POSRES_FC_SC    POSRES_FC_SC    POSRES_FC_SC   
 2101     1    POSRES_FC_SC    POSRES_FC_SC    POSRES_FC_SC   
 2102     1    POSRES_FC_SC    POSRES_FC_SC    POSRES_FC_SC   
 2103     1    POSRES_FC_SC    POSRES_FC_SC    POSRES_FC_SC   
 2106     1    POSRES_FC_SC    POSRES_FC_SC    POSRES_FC_SC   
 2108     1    POSRES_FC_SC    POSRES_FC_SC    POSRES_FC_SC   
 2110     1    POSRES_FC_BB    POSRES_FC_BB    POSRES_FC_BB   
 2112     1    POSRES_FC_BB    POSRES_FC_BB    POSRES_FC_BB   
 2113     1    POSRES_FC_BB    POSRES_FC_BB    POSRES_FC_BB   
 2114     1    POSRES_FC_BB    POSRES_FC_BB    POSRES_FC_BB   
 2115     1    POSRES_FC_BB    POSRES_FC_BB    POSRES_FC_BB   
 2116     1    POSRES_FC_BB    POSRES_FC_BB    POSRES_FC_BB   
 2117     1    POSRES_FC_BB    POSRES_FC_BB    POSRES_FC_BB   
 2120     1    POSRES_FC_BB    POSRES_FC_BB    POSRES_FC_BB   
 2122     1    POSRES_FC_SC    POSRES_FC_SC    POSRES_FC_SC   
 2123     1    POSRES_FC_SC    POSRES_FC_SC    POSRES_FC_SC   
 2125     1    POSRES_FC_SC    POSRES_FC_SC    POSRES_FC_SC   
 2126     1    POSRES_FC_SC    POSRES_FC_SC    POSRES_FC_SC   
 2127     1    POSRES_FC_SC    POSRES_FC_SC    POSRES_FC_SC   
 2128     1    POSRES_FC_SC    POSRES_FC_SC    POSRES_FC_SC   
 2130     1    POSRES_FC_SC    POSRES_FC_SC    POSRES_FC_SC   
 2131     1    POSRES_FC_SC    POSRES_FC_SC    POSRES_FC_SC   
 2133     1    POSRES_FC_SC    POSRES_FC_SC    POSRES_FC_SC   
 2134     1    POSRES_FC_SC    POSRES_FC_SC    POSRES_FC_SC   
 2135     1    POSRES_FC_SC    POSRES_FC_SC    POSRES_FC_SC   
 2136     1    POSRES_FC_SC    POSRES_FC_SC    POSRES_FC_SC   
 2139     1    POSRES_FC_SC    POSRES_FC_SC    POSRES_FC_SC   
 2141     1    POSRES_FC_SC    POSRES_FC_SC    POSRES_FC_SC   
 2143     1    POSRES_FC_BB    POSRES_FC_BB    POSRES_FC_BB   
 2145     1    POSRES_FC_BB    POSRES_FC_BB    POSRES_FC_BB   
 2146     1    POSRES_FC_BB    POSRES_FC_BB    POSRES_FC_BB   
 2147     1    POSRES_FC_BB    POSRES_FC_BB    POSRES_FC_BB   
 2148     1    POSRES_FC_BB    POSRES_FC_BB    POSRES_FC_BB   
 2149     1    POSRES_FC_BB    POSRES_FC_BB    POSRES_FC_BB   
 2150     1    POSRES_FC_BB    POSRES_FC_BB    POSRES_FC_BB   
 2153     1    POSRES_FC_BB    POSRES_FC_BB    POSRES_FC_BB   
 2155     1    POSRES_FC_SC    POSRES_FC_SC    POSRES_FC_SC   
 2156     1    POSRES_FC_SC    POSRES_FC_SC    POSRES_FC_SC   
 2158     1    POSRES_FC_SC    POSRES_FC_SC    POSRES_FC_SC   
 2159     1    POSRES_FC_SC    POSRES_FC_SC    POSRES_FC_SC   
 2161     1    POSRES_FC_SC    POSRES_FC_SC    POSRES_FC_SC   
 2162     1    POSRES_FC_SC    POSRES_FC_SC    POSRES_FC_SC   
 2163     1    POSRES_FC_SC    POSRES_FC_SC    POSRES_FC_SC   
 2165     1    POSRES_FC_SC    POSRES_FC_SC    POSRES_FC_SC   
 2166     1    POSRES_FC_SC    POSRES_FC_SC    POSRES_FC_SC   
 2167     1    POSRES_FC_SC    POSRES_FC_SC    POSRES_FC_SC   
 2169     1    POSRES_FC_SC    POSRES_FC_SC    POSRES_FC_SC   
 2171     1    POSRES_FC_SC    POSRES_FC_SC    POSRES_FC_SC   
 2173     1    POSRES_FC_BB    POSRES_FC_BB    POSRES_FC_BB   
 2175     1    POSRES_FC_BB    POSRES_FC_BB    POSRES_FC_BB   
 2176     1    POSRES_FC_BB    POSRES_FC_BB    POSRES_FC_BB   
 2177     1    POSRES_FC_BB    POSRES_FC_BB    POSRES_FC_BB   
 2178     1    POSRES_FC_BB    POSRES_FC_BB    POSRES_FC_BB   
 2179     1    POSRES_FC_BB    POSRES_FC_BB    POSRES_FC_BB   
 2180     1    POSRES_FC_BB    POSRES_FC_BB    POSRES_FC_BB   
 2183     1    POSRES_FC_BB    POSRES_FC_BB    POSRES_FC_BB   
 2185     1    POSRES_FC_SC    POSRES_FC_SC    POSRES_FC_SC   
 2186     1    POSRES_FC_SC    POSRES_FC_SC    POSRES_FC_SC   
 2188     1    POSRES_FC_SC    POSRES_FC_SC    POSRES_FC_SC   
 2189     1    POSRES_FC_SC    POSRES_FC_SC    POSRES_FC_SC   
 2190     1    POSRES_FC_SC    POSRES_FC_SC    POSRES_FC_SC   
 2193     1    POSRES_FC_SC    POSRES_FC_SC    POSRES_FC_SC   
 2194     1    POSRES_FC_SC    POSRES_FC_SC    POSRES_FC_SC   
 2195     1    POSRES_FC_SC    POSRES_FC_SC    POSRES_FC_SC   
 2197     1    POSRES_FC_SC    POSRES_FC_SC    POSRES_FC_SC   
 2198     1    POSRES_FC_SC    POSRES_FC_SC    POSRES_FC_SC   
 2199     1    POSRES_FC_SC    POSRES_FC_SC    POSRES_FC_SC   
 2200     1    POSRES_FC_SC    POSRES_FC_SC    POSRES_FC_SC   
 2201     1    POSRES_FC_SC    POSRES_FC_SC    POSRES_FC_SC   
 2203     1    POSRES_FC_SC    POSRES_FC_SC    POSRES_FC_SC   
 2205     1    POSRES_FC_SC    POSRES_FC_SC    POSRES_FC_SC   
 2207     1    POSRES_FC_BB    POSRES_FC_BB    POSRES_FC_BB   
 2209     1    POSRES_FC_BB    POSRES_FC_BB    POSRES_FC_BB   
 2210     1    POSRES_FC_BB    POSRES_FC_BB    POSRES_FC_BB   
 2211     1    POSRES_FC_BB    POSRES_FC_BB    POSRES_FC_BB   
 2212     1    POSRES_FC_BB    POSRES_FC_BB    POSRES_FC_BB   
 2213     1    POSRES_FC_BB    POSRES_FC_BB    POSRES_FC_BB   
 2214     1    POSRES_FC_BB    POSRES_FC_BB    POSRES_FC_BB   
 2217     1    POSRES_FC_BB    POSRES_FC_BB    POSRES_FC_BB   
 2219     1    POSRES_FC_SC    POSRES_FC_SC    POSRES_FC_SC   
 2220     1    POSRES_FC_SC    POSRES_FC_SC    POSRES_FC_SC   
 2222     1    POSRES_FC_SC    POSRES_FC_SC    POSRES_FC_SC   
 2223     1    POSRES_FC_SC    POSRES_FC_SC    POSRES_FC_SC   
 2225     1    POSRES_FC_SC    POSRES_FC_SC    POSRES_FC_SC   
 2227     1    POSRES_FC_SC    POSRES_FC_SC    POSRES_FC_SC   
 2228     1    POSRES_FC_SC    POSRES_FC_SC    POSRES_FC_SC   
 2229     1    POSRES_FC_SC    POSRES_FC_SC    POSRES_FC_SC   
 2230     1    POSRES_FC_SC    POSRES_FC_SC    POSRES_FC_SC   
 2231     1    POSRES_FC_SC    POSRES_FC_SC    POSRES_FC_SC   
 2234     1    POSRES_FC_SC    POSRES_FC_SC    POSRES_FC_SC   
 2236     1    POSRES_FC_SC    POSRES_FC_SC    POSRES_FC_SC   
 2238     1    POSRES_FC_BB    POSRES_FC_BB    POSRES_FC_BB   
 2240     1    POSRES_FC_BB    POSRES_FC_BB    POSRES_FC_BB   
 2241     1    POSRES_FC_BB    POSRES_FC_BB    POSRES_FC_BB   
 2242     1    POSRES_FC_BB    POSRES_FC_BB    POSRES_FC_BB   
 2243     1    POSRES_FC_BB    POSRES_FC_BB    POSRES_FC_BB   
 2244     1    POSRES_FC_BB    POSRES_FC_BB    POSRES_FC_BB   
 2245     1    POSRES_FC_BB    POSRES_FC_BB    POSRES_FC_BB   
 2248     1    POSRES_FC_BB    POSRES_FC_BB    POSRES_FC_BB   
 2250     1    POSRES_FC_SC    POSRES_FC_SC    POSRES_FC_SC   
 2251     1    POSRES_FC_SC    POSRES_FC_SC    POSRES_FC_SC   
 2253     1    POSRES_FC_SC    POSRES_FC_SC    POSRES_FC_SC   
 2254     1    POSRES_FC_SC    POSRES_FC_SC    POSRES_FC_SC   
 2256     1    POSRES_FC_SC    POSRES_FC_SC    POSRES_FC_SC   
 2258     1    POSRES_FC_SC    POSRES_FC_SC    POSRES_FC_SC   
 2259     1    POSRES_FC_SC    POSRES_FC_SC    POSRES_FC_SC   
 2260     1    POSRES_FC_SC    POSRES_FC_SC    POSRES_FC_SC   
 2261     1    POSRES_FC_SC    POSRES_FC_SC    POSRES_FC_SC   
 2262     1    POSRES_FC_SC    POSRES_FC_SC    POSRES_FC_SC   
 2265     1    POSRES_FC_SC    POSRES_FC_SC    POSRES_FC_SC   
 2267     1    POSRES_FC_SC    POSRES_FC_SC    POSRES_FC_SC   
 2269     1    POSRES_FC_BB    POSRES_FC_BB    POSRES_FC_BB   
 2271     1    POSRES_FC_BB    POSRES_FC_BB    POSRES_FC_BB   
 2272     1    POSRES_FC_BB    POSRES_FC_BB    POSRES_FC_BB   
 2273     1    POSRES_FC_BB    POSRES_FC_BB    POSRES_FC_BB   
 2274     1    POSRES_FC_BB    POSRES_FC_BB    POSRES_FC_BB   
 2275     1    POSRES_FC_BB    POSRES_FC_BB    POSRES_FC_BB   
 2276     1    POSRES_FC_BB    POSRES_FC_BB    POSRES_FC_BB   
 2279     1    POSRES_FC_BB    POSRES_FC_BB    POSRES_FC_BB   
 2281     1    POSRES_FC_SC    POSRES_FC_SC    POSRES_FC_SC   
 2282     1    POSRES_FC_SC    POSRES_FC_SC    POSRES_FC_SC   
 2284     1    POSRES_FC_SC    POSRES_FC_SC    POSRES_FC_SC   
 2285     1    POSRES_FC_SC    POSRES_FC_SC    POSRES_FC_SC   
 2286     1    POSRES_FC_SC    POSRES_FC_SC    POSRES_FC_SC   
 2287     1    POSRES_FC_SC    POSRES_FC_SC    POSRES_FC_SC   
 2289     1    POSRES_FC_SC    POSRES_FC_SC    POSRES_FC_SC   
 2290     1    POSRES_FC_SC    POSRES_FC_SC    POSRES_FC_SC   
 2292     1    POSRES_FC_SC    POSRES_FC_SC    POSRES_FC_SC   
 2293     1    POSRES_FC_SC    POSRES_FC_SC    POSRES_FC_SC   
 2294     1    POSRES_FC_SC    POSRES_FC_SC    POSRES_FC_SC   
 2295     1    POSRES_FC_SC    POSRES_FC_SC    POSRES_FC_SC   
 2298     1    POSRES_FC_SC    POSRES_FC_SC    POSRES_FC_SC   
 2300     1    POSRES_FC_SC    POSRES_FC_SC    POSRES_FC_SC   
 2302     1    POSRES_FC_BB    POSRES_FC_BB    POSRES_FC_BB   
 2304     1    POSRES_FC_BB    POSRES_FC_BB    POSRES_FC_BB   
 2305     1    POSRES_FC_BB    POSRES_FC_BB    POSRES_FC_BB   
 2306     1    POSRES_FC_BB    POSRES_FC_BB    POSRES_FC_BB   
 2307     1    POSRES_FC_BB    POSRES_FC_BB    POSRES_FC_BB   
 2308     1    POSRES_FC_BB    POSRES_FC_BB    POSRES_FC_BB   
 2309     1    POSRES_FC_BB    POSRES_FC_BB    POSRES_FC_BB   
 2312     1    POSRES_FC_BB    POSRES_FC_BB    POSRES_FC_BB   
 2314     1    POSRES_FC_SC    POSRES_FC_SC    POSRES_FC_SC   
 2315     1    POSRES_FC_SC    POSRES_FC_SC    POSRES_FC_SC   
 2317     1    POSRES_FC_SC    POSRES_FC_SC    POSRES_FC_SC   
 2318     1    POSRES_FC_SC    POSRES_FC_SC    POSRES_FC_SC   
 2319     1    POSRES_FC_SC    POSRES_FC_SC    POSRES_FC_SC   
 2322     1    POSRES_FC_SC    POSRES_FC_SC    POSRES_FC_SC   
 2323     1    POSRES_FC_SC    POSRES_FC_SC    POSRES_FC_SC   
 2324     1    POSRES_FC_SC    POSRES_FC_SC    POSRES_FC_SC   
 2326     1    POSRES_FC_SC    POSRES_FC_SC    POSRES_FC_SC   
 2327     1    POSRES_FC_SC    POSRES_FC_SC    POSRES_FC_SC   
 2328     1    POSRES_FC_SC    POSRES_FC_SC    POSRES_FC_SC   
 2329     1    POSRES_FC_SC    POSRES_FC_SC    POSRES_FC_SC   
 2330     1    POSRES_FC_SC    POSRES_FC_SC    POSRES_FC_SC   
 2332     1    POSRES_FC_SC    POSRES_FC_SC    POSRES_FC_SC   
 2334     1    POSRES_FC_SC    POSRES_FC_SC    POSRES_FC_SC   
 2336     1    POSRES_FC_BB    POSRES_FC_BB    POSRES_FC_BB   
 2338     1    POSRES_FC_BB    POSRES_FC_BB    POSRES_FC_BB   
 2339     1    POSRES_FC_BB    POSRES_FC_BB    POSRES_FC_BB   
 2340     1    POSRES_FC_BB    POSRES_FC_BB    POSRES_FC_BB   
 2341     1    POSRES_FC_BB    POSRES_FC_BB    POSRES_FC_BB   
 2342     1    POSRES_FC_BB    POSRES_FC_BB    POSRES_FC_BB   
 2343     1    POSRES_FC_BB    POSRES_FC_BB    POSRES_FC_BB   
 2346     1    POSRES_FC_BB    POSRES_FC_BB    POSRES_FC_BB   
 2348     1    POSRES_FC_SC    POSRES_FC_SC    POSRES_FC_SC   
 2349     1    POSRES_FC_SC    POSRES_FC_SC    POSRES_FC_SC   
 2351     1    POSRES_FC_SC    POSRES_FC_SC    POSRES_FC_SC   
 2352     1    POSRES_FC_SC    POSRES_FC_SC    POSRES_FC_SC   
 2354     1    POSRES_FC_SC    POSRES_FC_SC    POSRES_FC_SC   
 2356     1    POSRES_FC_SC    POSRES_FC_SC    POSRES_FC_SC   
 2357     1    POSRES_FC_SC    POSRES_FC_SC    POSRES_FC_SC   
 2358     1    POSRES_FC_SC    POSRES_FC_SC    POSRES_FC_SC   
 2359     1    POSRES_FC_SC    POSRES_FC_SC    POSRES_FC_SC   
 2360     1    POSRES_FC_SC    POSRES_FC_SC    POSRES_FC_SC   
 2363     1    POSRES_FC_SC    POSRES_FC_SC    POSRES_FC_SC   
 2365     1    POSRES_FC_SC    POSRES_FC_SC    POSRES_FC_SC   
 2367     1    POSRES_FC_BB    POSRES_FC_BB    POSRES_FC_BB   
 2369     1    POSRES_FC_BB    POSRES_FC_BB    POSRES_FC_BB   
 2370     1    POSRES_FC_BB    POSRES_FC_BB    POSRES_FC_BB   
 2371     1    POSRES_FC_BB    POSRES_FC_BB    POSRES_FC_BB   
 2372     1    POSRES_FC_BB    POSRES_FC_BB    POSRES_FC_BB   
 2373     1    POSRES_FC_BB    POSRES_FC_BB    POSRES_FC_BB   
 2374     1    POSRES_FC_BB    POSRES_FC_BB    POSRES_FC_BB   
 2377     1    POSRES_FC_BB    POSRES_FC_BB    POSRES_FC_BB   
 2379     1    POSRES_FC_SC    POSRES_FC_SC    POSRES_FC_SC   
 2380     1    POSRES_FC_SC    POSRES_FC_SC    POSRES_FC_SC   
 2382     1    POSRES_FC_SC    POSRES_FC_SC    POSRES_FC_SC   
 2383     1    POSRES_FC_SC    POSRES_FC_SC    POSRES_FC_SC   
 2384     1    POSRES_FC_SC    POSRES_FC_SC    POSRES_FC_SC   
 2387     1    POSRES_FC_SC    POSRES_FC_SC    POSRES_FC_SC   
 2388     1    POSRES_FC_SC    POSRES_FC_SC    POSRES_FC_SC   
 2389     1    POSRES_FC_SC    POSRES_FC_SC    POSRES_FC_SC   
 2391     1    POSRES_FC_SC    POSRES_FC_SC    POSRES_FC_SC   
 2392     1    POSRES_FC_SC    POSRES_FC_SC    POSRES_FC_SC   
 2393     1    POSRES_FC_SC    POSRES_FC_SC    POSRES_FC_SC   
 2394     1    POSRES_FC_SC    POSRES_FC_SC    POSRES_FC_SC   
 2395     1    POSRES_FC_SC    POSRES_FC_SC    POSRES_FC_SC   
 2397     1    POSRES_FC_SC    POSRES_FC_SC    POSRES_FC_SC   
 2399     1    POSRES_FC_SC    POSRES_FC_SC    POSRES_FC_SC   
 2401     1    POSRES_FC_BB    POSRES_FC_BB    POSRES_FC_BB   
 2403     1    POSRES_FC_BB    POSRES_FC_BB    POSRES_FC_BB   
 2404     1    POSRES_FC_BB    POSRES_FC_BB    POSRES_FC_BB   
 2405     1    POSRES_FC_BB    POSRES_FC_BB    POSRES_FC_BB   
 2406     1    POSRES_FC_BB    POSRES_FC_BB    POSRES_FC_BB   
 2407     1    POSRES_FC_BB    POSRES_FC_BB    POSRES_FC_BB   
 2408     1    POSRES_FC_BB    POSRES_FC_BB    POSRES_FC_BB   
 2411     1    POSRES_FC_BB    POSRES_FC_BB    POSRES_FC_BB   
 2413     1    POSRES_FC_SC    POSRES_FC_SC    POSRES_FC_SC   
 2414     1    POSRES_FC_SC    POSRES_FC_SC    POSRES_FC_SC   
 2416     1    POSRES_FC_SC    POSRES_FC_SC    POSRES_FC_SC   
 2417     1    POSRES_FC_SC    POSRES_FC_SC    POSRES_FC_SC   
 2419     1    POSRES_FC_SC    POSRES_FC_SC    POSRES_FC_SC   
 2420     1    POSRES_FC_SC    POSRES_FC_SC    POSRES_FC_SC   
 2421     1    POSRES_FC_SC    POSRES_FC_SC    POSRES_FC_SC   
 2423     1    POSRES_FC_SC    POSRES_FC_SC    POSRES_FC_SC   
 2424     1    POSRES_FC_SC    POSRES_FC_SC    POSRES_FC_SC   
 2425     1    POSRES_FC_SC    POSRES_FC_SC    POSRES_FC_SC   
 2427     1    POSRES_FC_SC    POSRES_FC_SC    POSRES_FC_SC   
 2429     1    POSRES_FC_SC    POSRES_FC_SC    POSRES_FC_SC   
 2431     1    POSRES_FC_BB    POSRES_FC_BB    POSRES_FC_BB   
 2433     1    POSRES_FC_BB    POSRES_FC_BB    POSRES_FC_BB   
 2434     1    POSRES_FC_BB    POSRES_FC_BB    POSRES_FC_BB   
 2435     1    POSRES_FC_BB    POSRES_FC_BB    POSRES_FC_BB   
 2436     1    POSRES_FC_BB    POSRES_FC_BB    POSRES_FC_BB   
 2437     1    POSRES_FC_BB    POSRES_FC_BB    POSRES_FC_BB   
 2438     1    POSRES_FC_BB    POSRES_FC_BB    POSRES_FC_BB   
 2441     1    POSRES_FC_BB    POSRES_FC_BB    POSRES_FC_BB   
 2443     1    POSRES_FC_SC    POSRES_FC_SC    POSRES_FC_SC   
 2444     1    POSRES_FC_SC    POSRES_FC_SC    POSRES_FC_SC   
 2446     1    POSRES_FC_SC    POSRES_FC_SC    POSRES_FC_SC   
 2447     1    POSRES_FC_SC    POSRES_FC_SC    POSRES_FC_SC   
 2448     1    POSRES_FC_SC    POSRES_FC_SC    POSRES_FC_SC   
 2449     1    POSRES_FC_SC    POSRES_FC_SC    POSRES_FC_SC   
 2451     1    POSRES_FC_SC    POSRES_FC_SC    POSRES_FC_SC   
 2452     1    POSRES_FC_SC    POSRES_FC_SC    POSRES_FC_SC   
 2454     1    POSRES_FC_SC    POSRES_FC_SC    POSRES_FC_SC   
 2455     1    POSRES_FC_SC    POSRES_FC_SC    POSRES_FC_SC   
 2456     1    POSRES_FC_SC    POSRES_FC_SC    POSRES_FC_SC   
 2457     1    POSRES_FC_SC    POSRES_FC_SC    POSRES_FC_SC   
 2460     1    POSRES_FC_SC    POSRES_FC_SC    POSRES_FC_SC   
 2462     1    POSRES_FC_SC    POSRES_FC_SC    POSRES_FC_SC   
 2464     1    POSRES_FC_BB    POSRES_FC_BB    POSRES_FC_BB   
 2466     1    POSRES_FC_BB    POSRES_FC_BB    POSRES_FC_BB   
 2467     1    POSRES_FC_BB    POSRES_FC_BB    POSRES_FC_BB   
 2468     1    POSRES_FC_BB    POSRES_FC_BB    POSRES_FC_BB   
 2469     1    POSRES_FC_BB    POSRES_FC_BB    POSRES_FC_BB   
 2470     1    POSRES_FC_BB    POSRES_FC_BB    POSRES_FC_BB   
 2471     1    POSRES_FC_BB    POSRES_FC_BB    POSRES_FC_BB   
 2474     1    POSRES_FC_BB    POSRES_FC_BB    POSRES_FC_BB   
 2476     1    POSRES_FC_SC    POSRES_FC_SC    POSRES_FC_SC   
 2477     1    POSRES_FC_SC    POSRES_FC_SC    POSRES_FC_SC   
 2479     1    POSRES_FC_SC    POSRES_FC_SC    POSRES_FC_SC   
 2480     1    POSRES_FC_SC    POSRES_FC_SC    POSRES_FC_SC   
 2481     1    POSRES_FC_SC    POSRES_FC_SC    POSRES_FC_SC   
 2484     1    POSRES_FC_SC    POSRES_FC_SC    POSRES_FC_SC   
 2485     1    POSRES_FC_SC    POSRES_FC_SC    POSRES_FC_SC   
 2486     1    POSRES_FC_SC    POSRES_FC_SC    POSRES_FC_SC   
 2488     1    POSRES_FC_SC    POSRES_FC_SC    POSRES_FC_SC   
 2489     1    POSRES_FC_SC    POSRES_FC_SC    POSRES_FC_SC   
 2490     1    POSRES_FC_SC    POSRES_FC_SC    POSRES_FC_SC   
 2491     1    POSRES_FC_SC    POSRES_FC_SC    POSRES_FC_SC   
 2492     1    POSRES_FC_SC    POSRES_FC_SC    POSRES_FC_SC   
 2494     1    POSRES_FC_SC    POSRES_FC_SC    POSRES_FC_SC   
 2496     1    POSRES_FC_SC    POSRES_FC_SC    POSRES_FC_SC   
 2498     1    POSRES_FC_BB    POSRES_FC_BB    POSRES_FC_BB   
 2500     1    POSRES_FC_BB    POSRES_FC_BB    POSRES_FC_BB   
 2501     1    POSRES_FC_BB    POSRES_FC_BB    POSRES_FC_BB   
 2502     1    POSRES_FC_BB    POSRES_FC_BB    POSRES_FC_BB   
 2503     1    POSRES_FC_BB    POSRES_FC_BB    POSRES_FC_BB   
 2504     1    POSRES_FC_BB    POSRES_FC_BB    POSRES_FC_BB   
 2505     1    POSRES_FC_BB    POSRES_FC_BB    POSRES_FC_BB   
 2508     1    POSRES_FC_BB    POSRES_FC_BB    POSRES_FC_BB   
 2510     1    POSRES_FC_SC    POSRES_FC_SC    POSRES_FC_SC   
 2511     1    POSRES_FC_SC    POSRES_FC_SC    POSRES_FC_SC   
 2513     1    POSRES_FC_SC    POSRES_FC_SC    POSRES_FC_SC   
 2514     1    POSRES_FC_SC    POSRES_FC_SC    POSRES_FC_SC   
 2515     1    POSRES_FC_SC    POSRES_FC_SC    POSRES_FC_SC   
 2518     1    POSRES_FC_SC    POSRES_FC_SC    POSRES_FC_SC   
 2519     1    POSRES_FC_SC    POSRES_FC_SC    POSRES_FC_SC   
 2520     1    POSRES_FC_SC    POSRES_FC_SC    POSRES_FC_SC   
 2522     1    POSRES_FC_SC    POSRES_FC_SC    POSRES_FC_SC   
 2523     1    POSRES_FC_SC    POSRES_FC_SC    POSRES_FC_SC   
 2524     1    POSRES_FC_SC    POSRES_FC_SC    POSRES_FC_SC   
 2525     1    POSRES_FC_SC    POSRES_FC_SC    POSRES_FC_SC   
 2526     1    POSRES_FC_SC    POSRES_FC_SC    POSRES_FC_SC   
 2528     1    POSRES_FC_SC    POSRES_FC_SC    POSRES_FC_SC   
 2530     1    POSRES_FC_SC    POSRES_FC_SC    POSRES_FC_SC   
 2532     1    POSRES_FC_BB    POSRES_FC_BB    POSRES_FC_BB   
 2534     1    POSRES_FC_BB    POSRES_FC_BB    POSRES_FC_BB   
 2535     1    POSRES_FC_BB    POSRES_FC_BB    POSRES_FC_BB   
 2536     1    POSRES_FC_BB    POSRES_FC_BB    POSRES_FC_BB   
 2537     1    POSRES_FC_BB    POSRES_FC_BB    POSRES_FC_BB   
 2538     1    POSRES_FC_BB    POSRES_FC_BB    POSRES_FC_BB   
 2539     1    POSRES_FC_BB    POSRES_FC_BB    POSRES_FC_BB   
 2542     1    POSRES_FC_BB    POSRES_FC_BB    POSRES_FC_BB   
 2544     1    POSRES_FC_SC    POSRES_FC_SC    POSRES_FC_SC   
 2545     1    POSRES_FC_SC    POSRES_FC_SC    POSRES_FC_SC   
 2547     1    POSRES_FC_SC    POSRES_FC_SC    POSRES_FC_SC   
 2548     1    POSRES_FC_SC    POSRES_FC_SC    POSRES_FC_SC   
 2549     1    POSRES_FC_SC    POSRES_FC_SC    POSRES_FC_SC   
 2552     1    POSRES_FC_SC    POSRES_FC_SC    POSRES_FC_SC   
 2553     1    POSRES_FC_SC    POSRES_FC_SC    POSRES_FC_SC   
 2554     1    POSRES_FC_SC    POSRES_FC_SC    POSRES_FC_SC   
 2556     1    POSRES_FC_SC    POSRES_FC_SC    POSRES_FC_SC   
 2557     1    POSRES_FC_SC    POSRES_FC_SC    POSRES_FC_SC   
 2558     1    POSRES_FC_SC    POSRES_FC_SC    POSRES_FC_SC   
 2559     1    POSRES_FC_SC    POSRES_FC_SC    POSRES_FC_SC   
 2560     1    POSRES_FC_SC    POSRES_FC_SC    POSRES_FC_SC   
 2562     1    POSRES_FC_SC    POSRES_FC_SC    POSRES_FC_SC   
 2564     1    POSRES_FC_SC    POSRES_FC_SC    POSRES_FC_SC   
 2566     1    POSRES_FC_BB    POSRES_FC_BB    POSRES_FC_BB   
 2568     1    POSRES_FC_BB    POSRES_FC_BB    POSRES_FC_BB   
 2569     1    POSRES_FC_BB    POSRES_FC_BB    POSRES_FC_BB   
 2570     1    POSRES_FC_BB    POSRES_FC_BB    POSRES_FC_BB   
 2571     1    POSRES_FC_BB    POSRES_FC_BB    POSRES_FC_BB   
 2572     1    POSRES_FC_BB    POSRES_FC_BB    POSRES_FC_BB   
 2573     1    POSRES_FC_BB    POSRES_FC_BB    POSRES_FC_BB   
 2576     1    POSRES_FC_BB    POSRES_FC_BB    POSRES_FC_BB   
 2578     1    POSRES_FC_SC    POSRES_FC_SC    POSRES_FC_SC   
 2579     1    POSRES_FC_SC    POSRES_FC_SC    POSRES_FC_SC   
 2581     1    POSRES_FC_SC    POSRES_FC_SC    POSRES_FC_SC   
 2582     1    POSRES_FC_SC    POSRES_FC_SC    POSRES_FC_SC   
 2583     1    POSRES_FC_SC    POSRES_FC_SC    POSRES_FC_SC   
 2584     1    POSRES_FC_SC    POSRES_FC_SC    POSRES_FC_SC   
 2586     1    POSRES_FC_SC    POSRES_FC_SC    POSRES_FC_SC   
 2587     1    POSRES_FC_SC    POSRES_FC_SC    POSRES_FC_SC   
 2589     1    POSRES_FC_SC    POSRES_FC_SC    POSRES_FC_SC   
 2590     1    POSRES_FC_SC    POSRES_FC_SC    POSRES_FC_SC   
 2591     1    POSRES_FC_SC    POSRES_FC_SC    POSRES_FC_SC   
 2592     1    POSRES_FC_SC    POSRES_FC_SC    POSRES_FC_SC   
 2595     1    POSRES_FC_SC    POSRES_FC_SC    POSRES_FC_SC   
 2597     1    POSRES_FC_SC    POSRES_FC_SC    POSRES_FC_SC   
 2599     1    POSRES_FC_BB    POSRES_FC_BB    POSRES_FC_BB   
 2601     1    POSRES_FC_BB    POSRES_FC_BB    POSRES_FC_BB   
 2602     1    POSRES_FC_BB    POSRES_FC_BB    POSRES_FC_BB   
 2603     1    POSRES_FC_BB    POSRES_FC_BB    POSRES_FC_BB   
 2604     1    POSRES_FC_BB    POSRES_FC_BB    POSRES_FC_BB   
 2605     1    POSRES_FC_BB    POSRES_FC_BB    POSRES_FC_BB   
 2606     1    POSRES_FC_BB    POSRES_FC_BB    POSRES_FC_BB   
 2609     1    POSRES_FC_BB    POSRES_FC_BB    POSRES_FC_BB   
 2611     1    POSRES_FC_SC    POSRES_FC_SC    POSRES_FC_SC   
 2612     1    POSRES_FC_SC    POSRES_FC_SC    POSRES_FC_SC   
 2614     1    POSRES_FC_SC    POSRES_FC_SC    POSRES_FC_SC   
 2615     1    POSRES_FC_SC    POSRES_FC_SC    POSRES_FC_SC   
 2616     1    POSRES_FC_SC    POSRES_FC_SC    POSRES_FC_SC   
 2617     1    POSRES_FC_SC    POSRES_FC_SC    POSRES_FC_SC   
 2619     1    POSRES_FC_SC    POSRES_FC_SC    POSRES_FC_SC   
 2620     1    POSRES_FC_SC    POSRES_FC_SC    POSRES_FC_SC   
 2622     1    POSRES_FC_SC    POSRES_FC_SC    POSRES_FC_SC   
 2623     1    POSRES_FC_SC    POSRES_FC_SC    POSRES_FC_SC   
 2624     1    POSRES_FC_SC    POSRES_FC_SC    POSRES_FC_SC   
 2625     1    POSRES_FC_SC    POSRES_FC_SC    POSRES_FC_SC   
 2628     1    POSRES_FC_SC    POSRES_FC_SC    POSRES_FC_SC   
 2630     1    POSRES_FC_SC    POSRES_FC_SC    POSRES_FC_SC   
 2632     1    POSRES_FC_BB    POSRES_FC_BB    POSRES_FC_BB   
 2634     1    POSRES_FC_BB    POSRES_FC_BB    POSRES_FC_BB   
 2635     1    POSRES_FC_BB    POSRES_FC_BB    POSRES_FC_BB   
 2636     1    POSRES_FC_BB    POSRES_FC_BB    POSRES_FC_BB   
 2637     1    POSRES_FC_BB    POSRES_FC_BB    POSRES_FC_BB   
 2638     1    POSRES_FC_BB    POSRES_FC_BB    POSRES_FC_BB   
 2639     1    POSRES_FC_BB    POSRES_FC_BB    POSRES_FC_BB   
 2642     1    POSRES_FC_BB    POSRES_FC_BB    POSRES_FC_BB   
 2644     1    POSRES_FC_SC    POSRES_FC_SC    POSRES_FC_SC   
 2645     1    POSRES_FC_SC    POSRES_FC_SC    POSRES_FC_SC   
 2647     1    POSRES_FC_SC    POSRES_FC_SC    POSRES_FC_SC   
 2648     1    POSRES_FC_SC    POSRES_FC_SC    POSRES_FC_SC   
 2649     1    POSRES_FC_SC    POSRES_FC_SC    POSRES_FC_SC   
 2652     1    POSRES_FC_SC    POSRES_FC_SC    POSRES_FC_SC   
 2653     1    POSRES_FC_SC    POSRES_FC_SC    POSRES_FC_SC   
 2654     1    POSRES_FC_SC    POSRES_FC_SC    POSRES_FC_SC   
 2656     1    POSRES_FC_SC    POSRES_FC_SC    POSRES_FC_SC   
 2657     1    POSRES_FC_SC    POSRES_FC_SC    POSRES_FC_SC   
 2658     1    POSRES_FC_SC    POSRES_FC_SC    POSRES_FC_SC   
 2659     1    POSRES_FC_SC    POSRES_FC_SC    POSRES_FC_SC   
 2660     1    POSRES_FC_SC    POSRES_FC_SC    POSRES_FC_SC   
 2662     1    POSRES_FC_SC    POSRES_FC_SC    POSRES_FC_SC   
 2664     1    POSRES_FC_SC    POSRES_FC_SC    POSRES_FC_SC   
 2666     1    POSRES_FC_BB    POSRES_FC_BB    POSRES_FC_BB   
 2668     1    POSRES_FC_BB    POSRES_FC_BB    POSRES_FC_BB   
 2669     1    POSRES_FC_BB    POSRES_FC_BB    POSRES_FC_BB   
 2670     1    POSRES_FC_BB    POSRES_FC_BB    POSRES_FC_BB   
 2671     1    POSRES_FC_BB    POSRES_FC_BB    POSRES_FC_BB   
 2672     1    POSRES_FC_BB    POSRES_FC_BB    POSRES_FC_BB   
 2673     1    POSRES_FC_BB    POSRES_FC_BB    POSRES_FC_BB   
 2676     1    POSRES_FC_BB    POSRES_FC_BB    POSRES_FC_BB   
 2678     1    POSRES_FC_SC    POSRES_FC_SC    POSRES_FC_SC   
 2679     1    POSRES_FC_SC    POSRES_FC_SC    POSRES_FC_SC   
 2681     1    POSRES_FC_SC    POSRES_FC_SC    POSRES_FC_SC   
 2682     1    POSRES_FC_SC    POSRES_FC_SC    POSRES_FC_SC   
 2684     1    POSRES_FC_SC    POSRES_FC_SC    POSRES_FC_SC   
 2685     1    POSRES_FC_SC    POSRES_FC_SC    POSRES_FC_SC   
 2686     1    POSRES_FC_SC    POSRES_FC_SC    POSRES_FC_SC   
 2688     1    POSRES_FC_SC    POSRES_FC_SC    POSRES_FC_SC   
 2689     1    POSRES_FC_SC    POSRES_FC_SC    POSRES_FC_SC   
 2690     1    POSRES_FC_SC    POSRES_FC_SC    POSRES_FC_SC   
 2692     1    POSRES_FC_SC    POSRES_FC_SC    POSRES_FC_SC   
 2694     1    POSRES_FC_SC    POSRES_FC_SC    POSRES_FC_SC   
 2696     1    POSRES_FC_BB    POSRES_FC_BB    POSRES_FC_BB   
 2698     1    POSRES_FC_BB    POSRES_FC_BB    POSRES_FC_BB   
 2699     1    POSRES_FC_BB    POSRES_FC_BB    POSRES_FC_BB   
 2700     1    POSRES_FC_BB    POSRES_FC_BB    POSRES_FC_BB   
 2701     1    POSRES_FC_BB    POSRES_FC_BB    POSRES_FC_BB   
 2702     1    POSRES_FC_BB    POSRES_FC_BB    POSRES_FC_BB   
 2703     1    POSRES_FC_BB    POSRES_FC_BB    POSRES_FC_BB   
 2706     1    POSRES_FC_BB    POSRES_FC_BB    POSRES_FC_BB   
 2708     1    POSRES_FC_SC    POSRES_FC_SC    POSRES_FC_SC   
 2709     1    POSRES_FC_SC    POSRES_FC_SC    POSRES_FC_SC   
 2711     1    POSRES_FC_SC    POSRES_FC_SC    POSRES_FC_SC   
 2712     1    POSRES_FC_SC    POSRES_FC_SC    POSRES_FC_SC   
 2714     1    POSRES_FC_SC    POSRES_FC_SC    POSRES_FC_SC   
 2716     1    POSRES_FC_SC    POSRES_FC_SC    POSRES_FC_SC   
 2717     1    POSRES_FC_SC    POSRES_FC_SC    POSRES_FC_SC   
 2718     1    POSRES_FC_SC    POSRES_FC_SC    POSRES_FC_SC   
 2719     1    POSRES_FC_SC    POSRES_FC_SC    POSRES_FC_SC   
 2720     1    POSRES_FC_SC    POSRES_FC_SC    POSRES_FC_SC   
 2723     1    POSRES_FC_SC    POSRES_FC_SC    POSRES_FC_SC   
 2725     1    POSRES_FC_SC    POSRES_FC_SC    POSRES_FC_SC   
 2727     1    POSRES_FC_BB    POSRES_FC_BB    POSRES_FC_BB   
 2729     1    POSRES_FC_BB    POSRES_FC_BB    POSRES_FC_BB   
 2730     1    POSRES_FC_BB    POSRES_FC_BB    POSRES_FC_BB   
 2731     1    POSRES_FC_BB    POSRES_FC_BB    POSRES_FC_BB   
 2732     1    POSRES_FC_BB    POSRES_FC_BB    POSRES_FC_BB   
 2733     1    POSRES_FC_BB    POSRES_FC_BB    POSRES_FC_BB   
 2734     1    POSRES_FC_BB    POSRES_FC_BB    POSRES_FC_BB   
 2737     1    POSRES_FC_BB    POSRES_FC_BB    POSRES_FC_BB   
 2739     1    POSRES_FC_SC    POSRES_FC_SC    POSRES_FC_SC   
 2740     1    POSRES_FC_SC    POSRES_FC_SC    POSRES_FC_SC   
 2742     1    POSRES_FC_SC    POSRES_FC_SC    POSRES_FC_SC   
 2743     1    POSRES_FC_SC    POSRES_FC_SC    POSRES_FC_SC   
 2744     1    POSRES_FC_SC    POSRES_FC_SC    POSRES_FC_SC   
 2747     1    POSRES_FC_SC    POSRES_FC_SC    POSRES_FC_SC   
 2748     1    POSRES_FC_SC    POSRES_FC_SC    POSRES_FC_SC   
 2749     1    POSRES_FC_SC    POSRES_FC_SC    POSRES_FC_SC   
 2751     1    POSRES_FC_SC    POSRES_FC_SC    POSRES_FC_SC   
 2752     1    POSRES_FC_SC    POSRES_FC_SC    POSRES_FC_SC   
 2753     1    POSRES_FC_SC    POSRES_FC_SC    POSRES_FC_SC   
 2754     1    POSRES_FC_SC    POSRES_FC_SC    POSRES_FC_SC   
 2755     1    POSRES_FC_SC    POSRES_FC_SC    POSRES_FC_SC   
 2757     1    POSRES_FC_SC    POSRES_FC_SC    POSRES_FC_SC   
 2759     1    POSRES_FC_SC    POSRES_FC_SC    POSRES_FC_SC   
 2761     1    POSRES_FC_BB    POSRES_FC_BB    POSRES_FC_BB   
 2763     1    POSRES_FC_BB    POSRES_FC_BB    POSRES_FC_BB   
 2764     1    POSRES_FC_BB    POSRES_FC_BB    POSRES_FC_BB   
 2765     1    POSRES_FC_BB    POSRES_FC_BB    POSRES_FC_BB   
 2766     1    POSRES_FC_BB    POSRES_FC_BB    POSRES_FC_BB   
 2767     1    POSRES_FC_BB    POSRES_FC_BB    POSRES_FC_BB   
 2768     1    POSRES_FC_BB    POSRES_FC_BB    POSRES_FC_BB   
 2771     1    POSRES_FC_BB    POSRES_FC_BB    POSRES_FC_BB   
 2773     1    POSRES_FC_SC    POSRES_FC_SC    POSRES_FC_SC   
 2774     1    POSRES_FC_SC    POSRES_FC_SC    POSRES_FC_SC   
 2776     1    POSRES_FC_SC    POSRES_FC_SC    POSRES_FC_SC   
 2777     1    POSRES_FC_SC    POSRES_FC_SC    POSRES_FC_SC   
 2779     1    POSRES_FC_SC    POSRES_FC_SC    POSRES_FC_SC   
 2781     1    POSRES_FC_SC    POSRES_FC_SC    POSRES_FC_SC   
 2782     1    POSRES_FC_SC    POSRES_FC_SC    POSRES_FC_SC   
 2783     1    POSRES_FC_SC    POSRES_FC_SC    POSRES_FC_SC   
 2784     1    POSRES_FC_SC    POSRES_FC_SC    POSRES_FC_SC   
 2785     1    POSRES_FC_SC    POSRES_FC_SC    POSRES_FC_SC   
 2788     1    POSRES_FC_SC    POSRES_FC_SC    POSRES_FC_SC   
 2790     1    POSRES_FC_SC    POSRES_FC_SC    POSRES_FC_SC   
 2792     1    POSRES_FC_BB    POSRES_FC_BB    POSRES_FC_BB   
 2794     1    POSRES_FC_BB    POSRES_FC_BB    POSRES_FC_BB   
#endif
