;;
;; Generated by CHARMM-GUI FF-Converter
;;
;; Correspondance:
;; jul316@lehigh.edu or wonpil@lehigh.edu
;;
;; GROMACS topology file for TPP
;;


[ moleculetype ]
; name	nrexcl
TPP	     3

[ atoms ]
; nr	type	resnr	residu	atom	cgnr	charge	mass
     1     NG2R62    601      TPP     N1      1    -0.730000    14.0070   ; qtot -0.730
     2     CG2R64    601      TPP     C1      2     0.468000    12.0110   ; qtot -0.262
     3      CG331    601      TPP     C2      3    -0.142000    12.0110   ; qtot -0.404
     4     NG2R62    601      TPP     N2      4    -0.773000    14.0070   ; qtot -1.177
     5     CG2R64    601      TPP     C3      5     0.454000    12.0110   ; qtot -0.723
     6      NG2S3    601      TPP     N3      6    -0.653000    14.0070   ; qtot -1.376
     7     CG2R61    601      TPP     C4      7    -0.142000    12.0110   ; qtot -1.518
     8     CG2R61    601      TPP     C5      8     0.345000    12.0110   ; qtot -1.173
     9      CG324    601      TPP     C6      9     0.278000    12.0110   ; qtot -0.895
    10     NG2R52    601      TPP     N4     10    -0.537000    14.0070   ; qtot -1.432
    11     CG2R53    601      TPP     C7     11     0.495000    12.0110   ; qtot -0.937
    12     SG2R50    601      TPP      S     12     0.002000    32.0600   ; qtot -0.935
    13     CG2R51    601      TPP     C8     13     0.366000    12.0110   ; qtot -0.569
    14     CG2R51    601      TPP     C9     14    -0.001000    12.0110   ; qtot -0.570
    15      CG331    601      TPP    C10     15    -0.124000    12.0110   ; qtot -0.694
    16      CG321    601      TPP    C11     16    -0.302000    12.0110   ; qtot -0.996
    17      CG321    601      TPP    C12     17    -0.051000    12.0110   ; qtot -1.047
    18      OG303    601      TPP     O1     18    -0.627000    15.9994   ; qtot -1.674
    19        PG1    601      TPP     P1     19     1.494000    30.9738   ; qtot -0.180
    20      OG2P1    601      TPP     O2     20    -0.804000    15.9994   ; qtot -0.984
    21      OG2P1    601      TPP     O3     21    -0.804000    15.9994   ; qtot -1.788
    22      OG304    601      TPP     O4     22    -0.748000    15.9994   ; qtot -2.536
    23        PG2    601      TPP     P2     23     1.093000    30.9738   ; qtot -1.443
    24      OG2P1    601      TPP     O5     24    -0.900000    15.9994   ; qtot -2.343
    25      OG2P1    601      TPP     O6     25    -0.900000    15.9994   ; qtot -3.243
    26      OG2P1    601      TPP     O7     26    -0.900000    15.9994   ; qtot -4.143
    27       HGA3    601      TPP     H1     27     0.090000     1.0080   ; qtot -4.053
    28       HGA3    601      TPP     H2     28     0.090000     1.0080   ; qtot -3.963
    29       HGA3    601      TPP     H3     29     0.090000     1.0080   ; qtot -3.873
    30       HGP4    601      TPP     H4     30     0.362000     1.0080   ; qtot -3.511
    31       HGP4    601      TPP     H5     31     0.362000     1.0080   ; qtot -3.149
    32      HGR62    601      TPP     H6     32     0.170000     1.0080   ; qtot -2.979
    33       HGA2    601      TPP     H7     33     0.090000     1.0080   ; qtot -2.889
    34       HGA2    601      TPP     H8     34     0.090000     1.0080   ; qtot -2.799
    35      HGR52    601      TPP     H9     35     0.169000     1.0080   ; qtot -2.630
    36       HGA3    601      TPP    H10     36     0.090000     1.0080   ; qtot -2.540
    37       HGA3    601      TPP    H11     37     0.090000     1.0080   ; qtot -2.450
    38       HGA3    601      TPP    H12     38     0.090000     1.0080   ; qtot -2.360
    39       HGA2    601      TPP    H13     39     0.090000     1.0080   ; qtot -2.270
    40       HGA2    601      TPP    H14     40     0.090000     1.0080   ; qtot -2.180
    41       HGA2    601      TPP    H15     41     0.090000     1.0080   ; qtot -2.090
    42       HGA2    601      TPP    H16     42     0.090000     1.0080   ; qtot -2.000

[ bonds ]
; ai	aj	funct	b0	Kb
    1     2     1
    1     8     1
    2     3     1
    2     4     1
    3    27     1
    3    28     1
    3    29     1
    4     5     1
    5     6     1
    5     7     1
    6    30     1
    6    31     1
    7     8     1
    7     9     1
    8    32     1
    9    10     1
    9    33     1
    9    34     1
   10    11     1
   10    14     1
   11    12     1
   11    35     1
   12    13     1
   13    14     1
   13    16     1
   14    15     1
   15    36     1
   15    37     1
   15    38     1
   16    17     1
   16    39     1
   16    40     1
   17    18     1
   17    41     1
   17    42     1
   18    19     1
   19    20     1
   19    21     1
   19    22     1
   22    23     1
   23    24     1
   23    25     1
   23    26     1

[ pairs ]
; ai	aj	funct	c6	c12 or
; ai	aj	funct	fudgeQQ	q1	q2	c6	c12
    1     5     1
    1     9     1
    1    27     1
    1    28     1
    1    29     1
    2     6     1
    2     7     1
    2    32     1
    3     5     1
    3     8     1
    4     8     1
    4     9     1
    4    27     1
    4    28     1
    4    29     1
    4    30     1
    4    31     1
    5    10     1
    5    32     1
    5    33     1
    5    34     1
    6     8     1
    6     9     1
    7    11     1
    7    14     1
    7    30     1
    7    31     1
    8    10     1
    8    33     1
    8    34     1
    9    12     1
    9    13     1
    9    15     1
    9    32     1
    9    35     1
   10    16     1
   10    36     1
   10    37     1
   10    38     1
   11    15     1
   11    16     1
   11    33     1
   11    34     1
   12    15     1
   12    17     1
   12    39     1
   12    40     1
   13    18     1
   13    35     1
   13    36     1
   13    37     1
   13    38     1
   13    41     1
   13    42     1
   14    17     1
   14    33     1
   14    34     1
   14    35     1
   14    39     1
   14    40     1
   15    16     1
   16    19     1
   17    20     1
   17    21     1
   17    22     1
   18    23     1
   18    39     1
   18    40     1
   19    24     1
   19    25     1
   19    26     1
   19    41     1
   19    42     1
   20    23     1
   21    23     1
   39    41     1
   39    42     1
   40    41     1
   40    42     1

[ angles ] 
; ai	aj	ak	funct	th0	cth	S0	Kub
    2     1     8     5
    1     2     3     5
    1     2     4     5
    3     2     4     5
    2     3    27     5
    2     3    28     5
    2     3    29     5
   27     3    28     5
   27     3    29     5
   28     3    29     5
    2     4     5     5
    4     5     6     5
    4     5     7     5
    6     5     7     5
    5     6    30     5
    5     6    31     5
   30     6    31     5
    5     7     8     5
    5     7     9     5
    8     7     9     5
    1     8     7     5
    1     8    32     5
    7     8    32     5
    7     9    10     5
    7     9    33     5
    7     9    34     5
   10     9    33     5
   10     9    34     5
   33     9    34     5
    9    10    11     5
    9    10    14     5
   11    10    14     5
   10    11    12     5
   10    11    35     5
   12    11    35     5
   11    12    13     5
   12    13    14     5
   12    13    16     5
   14    13    16     5
   10    14    13     5
   10    14    15     5
   13    14    15     5
   14    15    36     5
   14    15    37     5
   14    15    38     5
   36    15    37     5
   36    15    38     5
   37    15    38     5
   13    16    17     5
   13    16    39     5
   13    16    40     5
   17    16    39     5
   17    16    40     5
   39    16    40     5
   16    17    18     5
   16    17    41     5
   16    17    42     5
   18    17    41     5
   18    17    42     5
   41    17    42     5
   17    18    19     5
   18    19    20     5
   18    19    21     5
   18    19    22     5
   20    19    21     5
   20    19    22     5
   21    19    22     5
   19    22    23     5
   22    23    24     5
   22    23    25     5
   22    23    26     5
   24    23    25     5
   24    23    26     5
   25    23    26     5

[ dihedrals ]
; ai	aj	ak	al	funct	phi0	cp	mult
    2     1     8     7     9
    2     1     8    32     9
    3     2     1     8     9
    4     2     1     8     9
    1     2     3    27     9
    1     2     3    28     9
    1     2     3    29     9
    4     2     3    27     9
    4     2     3    28     9
    4     2     3    29     9
    1     2     4     5     9
    3     2     4     5     9
    2     4     5     6     9
    2     4     5     7     9
    4     5     6    30     9
    4     5     6    31     9
    7     5     6    30     9
    7     5     6    31     9
    4     5     7     8     9
    4     5     7     9     9
    6     5     7     8     9
    6     5     7     9     9
    5     7     8    32     9
    9     7     8    32     9
    5     7     9    10     9
    5     7     9    33     9
    5     7     9    34     9
    8     7     9    10     9
    8     7     9    33     9
    8     7     9    34     9
    1     8     7     5     9
    1     8     7     9     9
    7     9    10    11     9
    7     9    10    14     9
   11    10     9    33     9
   11    10     9    34     9
   14    10     9    33     9
   14    10     9    34     9
    9    10    11    12     9
    9    10    11    35     9
   14    10    11    35     9
    9    10    14    13     9
    9    10    14    15     9
   11    10    14    13     9
   11    10    14    15     9
   12    11    10    14     9
   10    11    12    13     9
   13    12    11    35     9
   11    12    13    14     9
   11    12    13    16     9
   12    13    14    15     9
   12    13    16    17     9
   12    13    16    39     9
   12    13    16    40     9
   14    13    16    17     9
   14    13    16    39     9
   14    13    16    40     9
   10    14    13    12     9
   10    14    13    16     9
   15    14    13    16     9
   10    14    15    36     9
   10    14    15    37     9
   10    14    15    38     9
   13    14    15    36     9
   13    14    15    37     9
   13    14    15    38     9
   13    16    17    18     9
   13    16    17    41     9
   13    16    17    42     9
   39    16    17    41     9
   39    16    17    42     9
   40    16    17    41     9
   40    16    17    42     9
   18    17    16    39     9
   18    17    16    40     9
   16    17    18    19     9
   19    18    17    41     9
   19    18    17    42     9
   17    18    19    20     9
   17    18    19    21     9
   17    18    19    22     9
   18    19    22    23     9
   20    19    22    23     9
   21    19    22    23     9
   19    22    23    24     9
   19    22    23    25     9
   19    22    23    26     9

[ dihedrals ]
; ai	aj	ak	al	funct	q0	cq
    5     7     4     6     2
    6    31    30     5     2

#ifdef POSRES
[ position_restraints ]
    1     1    POSRES_FC_BB    POSRES_FC_BB    POSRES_FC_BB   
    2     1    POSRES_FC_BB    POSRES_FC_BB    POSRES_FC_BB   
    3     1    POSRES_FC_BB    POSRES_FC_BB    POSRES_FC_BB   
    4     1    POSRES_FC_BB    POSRES_FC_BB    POSRES_FC_BB   
    5     1    POSRES_FC_BB    POSRES_FC_BB    POSRES_FC_BB   
    6     1    POSRES_FC_BB    POSRES_FC_BB    POSRES_FC_BB   
    7     1    POSRES_FC_BB    POSRES_FC_BB    POSRES_FC_BB   
    8     1    POSRES_FC_BB    POSRES_FC_BB    POSRES_FC_BB   
    9     1    POSRES_FC_BB    POSRES_FC_BB    POSRES_FC_BB   
   10     1    POSRES_FC_BB    POSRES_FC_BB    POSRES_FC_BB   
   11     1    POSRES_FC_BB    POSRES_FC_BB    POSRES_FC_BB   
   12     1    POSRES_FC_BB    POSRES_FC_BB    POSRES_FC_BB   
   13     1    POSRES_FC_BB    POSRES_FC_BB    POSRES_FC_BB   
   14     1    POSRES_FC_BB    POSRES_FC_BB    POSRES_FC_BB   
   15     1    POSRES_FC_BB    POSRES_FC_BB    POSRES_FC_BB   
   16     1    POSRES_FC_BB    POSRES_FC_BB    POSRES_FC_BB   
   17     1    POSRES_FC_BB    POSRES_FC_BB    POSRES_FC_BB   
   18     1    POSRES_FC_BB    POSRES_FC_BB    POSRES_FC_BB   
   19     1    POSRES_FC_BB    POSRES_FC_BB    POSRES_FC_BB   
   20     1    POSRES_FC_BB    POSRES_FC_BB    POSRES_FC_BB   
   21     1    POSRES_FC_BB    POSRES_FC_BB    POSRES_FC_BB   
   22     1    POSRES_FC_BB    POSRES_FC_BB    POSRES_FC_BB   
   23     1    POSRES_FC_BB    POSRES_FC_BB    POSRES_FC_BB   
   24     1    POSRES_FC_BB    POSRES_FC_BB    POSRES_FC_BB   
   25     1    POSRES_FC_BB    POSRES_FC_BB    POSRES_FC_BB   
   26     1    POSRES_FC_BB    POSRES_FC_BB    POSRES_FC_BB   
#endif
